Generated by pymatgen.io.lammps.data.LammpsData

3584  atoms

   4  atom types

0.000000 34.106564  xlo xhi
0.000000 34.106564  ylo yhi
0.000000 34.106564  zlo zhi

Masses

1   6.941000
2  47.867000
3  54.938045
4  15.999400

Atoms

1     1  0.5250  5.340406  3.186235  7.449556
2     1  0.5250  5.340406  3.186235 15.976197
3     1  0.5250  5.340406  3.186235 24.502838
4     1  0.5250  5.340406  3.186235 33.029479
5     1  0.5250  5.340406 11.712876  7.449556
6     1  0.5250  5.340406 11.712876 15.976197
7     1  0.5250  5.340406 11.712876 24.502838
8     1  0.5250  5.340406 11.712876 33.029479
9     1  0.5250  5.340406 20.239517  7.449556
10    1  0.5250  5.340406 20.239517 15.976197
11    1  0.5250  5.340406 20.239517 24.502838
12    1  0.5250  5.340406 20.239517 33.029479
13    1  0.5250  5.340406 28.766158  7.449556
14    1  0.5250  5.340406 28.766158 15.976197
15    1  0.5250  5.340406 28.766158 24.502838
16    1  0.5250  5.340406 28.766158 33.029479
17    1  0.5250 13.867047  3.186235  7.449556
18    1  0.5250 13.867047  3.186235 15.976197
19    1  0.5250 13.867047  3.186235 24.502838
20    1  0.5250 13.867047  3.186235 33.029479
21    1  0.5250 13.867047 11.712876  7.449556
22    1  0.5250 13.867047 11.712876 15.976197
23    1  0.5250 13.867047 11.712876 24.502838
24    1  0.5250 13.867047 11.712876 33.029479
25    1  0.5250 13.867047 20.239517  7.449556
26    1  0.5250 13.867047 20.239517 15.976197
27    1  0.5250 13.867047 20.239517 24.502838
28    1  0.5250 13.867047 20.239517 33.029479
29    1  0.5250 13.867047 28.766158  7.449556
30    1  0.5250 13.867047 28.766158 15.976197
31    1  0.5250 13.867047 28.766158 24.502838
32    1  0.5250 13.867047 28.766158 33.029479
33    1  0.5250 22.393688  3.186235  7.449556
34    1  0.5250 22.393688  3.186235 15.976197
35    1  0.5250 22.393688  3.186235 24.502838
36    1  0.5250 22.393688  3.186235 33.029479
37    1  0.5250 22.393688 11.712876  7.449556
38    1  0.5250 22.393688 11.712876 15.976197
39    1  0.5250 22.393688 11.712876 24.502838
40    1  0.5250 22.393688 11.712876 33.029479
41    1  0.5250 22.393688 20.239517  7.449556
42    1  0.5250 22.393688 20.239517 15.976197
43    1  0.5250 22.393688 20.239517 24.502838
44    1  0.5250 22.393688 20.239517 33.029479
45    1  0.5250 22.393688 28.766158  7.449556
46    1  0.5250 22.393688 28.766158 15.976197
47    1  0.5250 22.393688 28.766158 24.502838
48    1  0.5250 22.393688 28.766158 33.029479
49    1  0.5250 30.920329  3.186235  7.449556
50    1  0.5250 30.920329  3.186235 15.976197
51    1  0.5250 30.920329  3.186235 24.502838
52    1  0.5250 30.920329  3.186235 33.029479
53    1  0.5250 30.920329 11.712876  7.449556
54    1  0.5250 30.920329 11.712876 15.976197
55    1  0.5250 30.920329 11.712876 24.502838
56    1  0.5250 30.920329 11.712876 33.029479
57    1  0.5250 30.920329 20.239517  7.449556
58    1  0.5250 30.920329 20.239517 15.976197
59    1  0.5250 30.920329 20.239517 24.502838
60    1  0.5250 30.920329 20.239517 33.029479
61    1  0.5250 30.920329 28.766158  7.449556
62    1  0.5250 30.920329 28.766158 15.976197
63    1  0.5250 30.920329 28.766158 24.502838
64    1  0.5250 30.920329 28.766158 33.029479
65    1  0.5250  6.371643  2.108323  2.154998
66    1  0.5250  6.371643  2.108323 10.681639
67    1  0.5250  6.371643  2.108323 19.208280
68    1  0.5250  6.371643  2.108323 27.734921
69    1  0.5250  6.371643 10.634964  2.154998
70    1  0.5250  6.371643 10.634964 10.681639
71    1  0.5250  6.371643 10.634964 19.208280
72    1  0.5250  6.371643 10.634964 27.734921
73    1  0.5250  6.371643 19.161605  2.154998
74    1  0.5250  6.371643 19.161605 10.681639
75    1  0.5250  6.371643 19.161605 19.208280
76    1  0.5250  6.371643 19.161605 27.734921
77    1  0.5250  6.371643 27.688246  2.154998
78    1  0.5250  6.371643 27.688246 10.681639
79    1  0.5250  6.371643 27.688246 19.208280
80    1  0.5250  6.371643 27.688246 27.734921
81    1  0.5250 14.898284  2.108323  2.154998
82    1  0.5250 14.898284  2.108323 10.681639
83    1  0.5250 14.898284  2.108323 19.208280
84    1  0.5250 14.898284  2.108323 27.734921
85    1  0.5250 14.898284 10.634964  2.154998
86    1  0.5250 14.898284 10.634964 10.681639
87    1  0.5250 14.898284 10.634964 19.208280
88    1  0.5250 14.898284 10.634964 27.734921
89    1  0.5250 14.898284 19.161605  2.154998
90    1  0.5250 14.898284 19.161605 10.681639
91    1  0.5250 14.898284 19.161605 19.208280
92    1  0.5250 14.898284 19.161605 27.734921
93    1  0.5250 14.898284 27.688246  2.154998
94    1  0.5250 14.898284 27.688246 10.681639
95    1  0.5250 14.898284 27.688246 19.208280
96    1  0.5250 14.898284 27.688246 27.734921
97    1  0.5250 23.424925  2.108323  2.154998
98    1  0.5250 23.424925  2.108323 10.681639
99    1  0.5250 23.424925  2.108323 19.208280
100   1  0.5250 23.424925  2.108323 27.734921
101   1  0.5250 23.424925 10.634964  2.154998
102   1  0.5250 23.424925 10.634964 10.681639
103   1  0.5250 23.424925 10.634964 19.208280
104   1  0.5250 23.424925 10.634964 27.734921
105   1  0.5250 23.424925 19.161605  2.154998
106   1  0.5250 23.424925 19.161605 10.681639
107   1  0.5250 23.424925 19.161605 19.208280
108   1  0.5250 23.424925 19.161605 27.734921
109   1  0.5250 23.424925 27.688246  2.154998
110   1  0.5250 23.424925 27.688246 10.681639
111   1  0.5250 23.424925 27.688246 19.208280
112   1  0.5250 23.424925 27.688246 27.734921
113   1  0.5250 31.951566  2.108323  2.154998
114   1  0.5250 31.951566  2.108323 10.681639
115   1  0.5250 31.951566  2.108323 19.208280
116   1  0.5250 31.951566  2.108323 27.734921
117   1  0.5250 31.951566 10.634964  2.154998
118   1  0.5250 31.951566 10.634964 10.681639
119   1  0.5250 31.951566 10.634964 19.208280
120   1  0.5250 31.951566 10.634964 27.734921
121   1  0.5250 31.951566 19.161605  2.154998
122   1  0.5250 31.951566 19.161605 10.681639
123   1  0.5250 31.951566 19.161605 19.208280
124   1  0.5250 31.951566 19.161605 27.734921
125   1  0.5250 31.951566 27.688246  2.154998
126   1  0.5250 31.951566 27.688246 10.681639
127   1  0.5250 31.951566 27.688246 19.208280
128   1  0.5250 31.951566 27.688246 27.734921
129   1  0.5250  6.418318  6.418318  6.418318
130   1  0.5250  6.418318  6.418318 14.944959
131   1  0.5250  6.418318  6.418318 23.471600
132   1  0.5250  6.418318  6.418318 31.998241
133   1  0.5250  6.418318 14.944959  6.418318
134   1  0.5250  6.418318 14.944959 14.944959
135   1  0.5250  6.418318 14.944959 23.471600
136   1  0.5250  6.418318 14.944959 31.998241
137   1  0.5250  6.418318 23.471600  6.418318
138   1  0.5250  6.418318 23.471600 14.944959
139   1  0.5250  6.418318 23.471600 23.471600
140   1  0.5250  6.418318 23.471600 31.998241
141   1  0.5250  6.418318 31.998241  6.418318
142   1  0.5250  6.418318 31.998241 14.944959
143   1  0.5250  6.418318 31.998241 23.471600
144   1  0.5250  6.418318 31.998241 31.998241
145   1  0.5250 14.944959  6.418318  6.418318
146   1  0.5250 14.944959  6.418318 14.944959
147   1  0.5250 14.944959  6.418318 23.471600
148   1  0.5250 14.944959  6.418318 31.998241
149   1  0.5250 14.944959 14.944959  6.418318
150   1  0.5250 14.944959 14.944959 14.944959
151   1  0.5250 14.944959 14.944959 23.471600
152   1  0.5250 14.944959 14.944959 31.998241
153   1  0.5250 14.944959 23.471600  6.418318
154   1  0.5250 14.944959 23.471600 14.944959
155   1  0.5250 14.944959 23.471600 23.471600
156   1  0.5250 14.944959 23.471600 31.998241
157   1  0.5250 14.944959 31.998241  6.418318
158   1  0.5250 14.944959 31.998241 14.944959
159   1  0.5250 14.944959 31.998241 23.471600
160   1  0.5250 14.944959 31.998241 31.998241
161   1  0.5250 23.471600  6.418318  6.418318
162   1  0.5250 23.471600  6.418318 14.944959
163   1  0.5250 23.471600  6.418318 23.471600
164   1  0.5250 23.471600  6.418318 31.998241
165   1  0.5250 23.471600 14.944959  6.418318
166   1  0.5250 23.471600 14.944959 14.944959
167   1  0.5250 23.471600 14.944959 23.471600
168   1  0.5250 23.471600 14.944959 31.998241
169   1  0.5250 23.471600 23.471600  6.418318
170   1  0.5250 23.471600 23.471600 14.944959
171   1  0.5250 23.471600 23.471600 23.471600
172   1  0.5250 23.471600 23.471600 31.998241
173   1  0.5250 23.471600 31.998241  6.418318
174   1  0.5250 23.471600 31.998241 14.944959
175   1  0.5250 23.471600 31.998241 23.471600
176   1  0.5250 23.471600 31.998241 31.998241
177   1  0.5250 31.998241  6.418318  6.418318
178   1  0.5250 31.998241  6.418318 14.944959
179   1  0.5250 31.998241  6.418318 23.471600
180   1  0.5250 31.998241  6.418318 31.998241
181   1  0.5250 31.998241 14.944959  6.418318
182   1  0.5250 31.998241 14.944959 14.944959
183   1  0.5250 31.998241 14.944959 23.471600
184   1  0.5250 31.998241 14.944959 31.998241
185   1  0.5250 31.998241 23.471600  6.418318
186   1  0.5250 31.998241 23.471600 14.944959
187   1  0.5250 31.998241 23.471600 23.471600
188   1  0.5250 31.998241 23.471600 31.998241
189   1  0.5250 31.998241 31.998241  6.418318
190   1  0.5250 31.998241 31.998241 14.944959
191   1  0.5250 31.998241 31.998241 23.471600
192   1  0.5250 31.998241 31.998241 31.998241
193   1  0.5250  7.449556  5.340406  3.186235
194   1  0.5250  7.449556  5.340406 11.712876
195   1  0.5250  7.449556  5.340406 20.239517
196   1  0.5250  7.449556  5.340406 28.766158
197   1  0.5250  7.449556 13.867047  3.186235
198   1  0.5250  7.449556 13.867047 11.712876
199   1  0.5250  7.449556 13.867047 20.239517
200   1  0.5250  7.449556 13.867047 28.766158
201   1  0.5250  7.449556 22.393688  3.186235
202   1  0.5250  7.449556 22.393688 11.712876
203   1  0.5250  7.449556 22.393688 20.239517
204   1  0.5250  7.449556 22.393688 28.766158
205   1  0.5250  7.449556 30.920329  3.186235
206   1  0.5250  7.449556 30.920329 11.712876
207   1  0.5250  7.449556 30.920329 20.239517
208   1  0.5250  7.449556 30.920329 28.766158
209   1  0.5250 15.976197  5.340406  3.186235
210   1  0.5250 15.976197  5.340406 11.712876
211   1  0.5250 15.976197  5.340406 20.239517
212   1  0.5250 15.976197  5.340406 28.766158
213   1  0.5250 15.976197 13.867047  3.186235
214   1  0.5250 15.976197 13.867047 11.712876
215   1  0.5250 15.976197 13.867047 20.239517
216   1  0.5250 15.976197 13.867047 28.766158
217   1  0.5250 15.976197 22.393688  3.186235
218   1  0.5250 15.976197 22.393688 11.712876
219   1  0.5250 15.976197 22.393688 20.239517
220   1  0.5250 15.976197 22.393688 28.766158
221   1  0.5250 15.976197 30.920329  3.186235
222   1  0.5250 15.976197 30.920329 11.712876
223   1  0.5250 15.976197 30.920329 20.239517
224   1  0.5250 15.976197 30.920329 28.766158
225   1  0.5250 24.502838  5.340406  3.186235
226   1  0.5250 24.502838  5.340406 11.712876
227   1  0.5250 24.502838  5.340406 20.239517
228   1  0.5250 24.502838  5.340406 28.766158
229   1  0.5250 24.502838 13.867047  3.186235
230   1  0.5250 24.502838 13.867047 11.712876
231   1  0.5250 24.502838 13.867047 20.239517
232   1  0.5250 24.502838 13.867047 28.766158
233   1  0.5250 24.502838 22.393688  3.186235
234   1  0.5250 24.502838 22.393688 11.712876
235   1  0.5250 24.502838 22.393688 20.239517
236   1  0.5250 24.502838 22.393688 28.766158
237   1  0.5250 24.502838 30.920329  3.186235
238   1  0.5250 24.502838 30.920329 11.712876
239   1  0.5250 24.502838 30.920329 20.239517
240   1  0.5250 24.502838 30.920329 28.766158
241   1  0.5250 33.029479  5.340406  3.186235
242   1  0.5250 33.029479  5.340406 11.712876
243   1  0.5250 33.029479  5.340406 20.239517
244   1  0.5250 33.029479  5.340406 28.766158
245   1  0.5250 33.029479 13.867047  3.186235
246   1  0.5250 33.029479 13.867047 11.712876
247   1  0.5250 33.029479 13.867047 20.239517
248   1  0.5250 33.029479 13.867047 28.766158
249   1  0.5250 33.029479 22.393688  3.186235
250   1  0.5250 33.029479 22.393688 11.712876
251   1  0.5250 33.029479 22.393688 20.239517
252   1  0.5250 33.029479 22.393688 28.766158
253   1  0.5250 33.029479 30.920329  3.186235
254   1  0.5250 33.029479 30.920329 11.712876
255   1  0.5250 33.029479 30.920329 20.239517
256   1  0.5250 33.029479 30.920329 28.766158
257   1  0.5250  1.077085  1.077085  1.077085
258   1  0.5250  1.077085  1.077085  9.603726
259   1  0.5250  1.077085  1.077085 18.130367
260   1  0.5250  1.077085  1.077085 26.657008
261   1  0.5250  1.077085  9.603726  1.077085
262   1  0.5250  1.077085  9.603726  9.603726
263   1  0.5250  1.077085  9.603726 18.130367
264   1  0.5250  1.077085  9.603726 26.657008
265   1  0.5250  1.077085 18.130367  1.077085
266   1  0.5250  1.077085 18.130367  9.603726
267   1  0.5250  1.077085 18.130367 18.130367
268   1  0.5250  1.077085 18.130367 26.657008
269   1  0.5250  1.077085 26.657008  1.077085
270   1  0.5250  1.077085 26.657008  9.603726
271   1  0.5250  1.077085 26.657008 18.130367
272   1  0.5250  1.077085 26.657008 26.657008
273   1  0.5250  9.603726  1.077085  1.077085
274   1  0.5250  9.603726  1.077085  9.603726
275   1  0.5250  9.603726  1.077085 18.130367
276   1  0.5250  9.603726  1.077085 26.657008
277   1  0.5250  9.603726  9.603726  1.077085
278   1  0.5250  9.603726  9.603726  9.603726
279   1  0.5250  9.603726  9.603726 18.130367
280   1  0.5250  9.603726  9.603726 26.657008
281   1  0.5250  9.603726 18.130367  1.077085
282   1  0.5250  9.603726 18.130367  9.603726
283   1  0.5250  9.603726 18.130367 18.130367
284   1  0.5250  9.603726 18.130367 26.657008
285   1  0.5250  9.603726 26.657008  1.077085
286   1  0.5250  9.603726 26.657008  9.603726
287   1  0.5250  9.603726 26.657008 18.130367
288   1  0.5250  9.603726 26.657008 26.657008
289   1  0.5250 18.130367  1.077085  1.077085
290   1  0.5250 18.130367  1.077085  9.603726
291   1  0.5250 18.130367  1.077085 18.130367
292   1  0.5250 18.130367  1.077085 26.657008
293   1  0.5250 18.130367  9.603726  1.077085
294   1  0.5250 18.130367  9.603726  9.603726
295   1  0.5250 18.130367  9.603726 18.130367
296   1  0.5250 18.130367  9.603726 26.657008
297   1  0.5250 18.130367 18.130367  1.077085
298   1  0.5250 18.130367 18.130367  9.603726
299   1  0.5250 18.130367 18.130367 18.130367
300   1  0.5250 18.130367 18.130367 26.657008
301   1  0.5250 18.130367 26.657008  1.077085
302   1  0.5250 18.130367 26.657008  9.603726
303   1  0.5250 18.130367 26.657008 18.130367
304   1  0.5250 18.130367 26.657008 26.657008
305   1  0.5250 26.657008  1.077085  1.077085
306   1  0.5250 26.657008  1.077085  9.603726
307   1  0.5250 26.657008  1.077085 18.130367
308   1  0.5250 26.657008  1.077085 26.657008
309   1  0.5250 26.657008  9.603726  1.077085
310   1  0.5250 26.657008  9.603726  9.603726
311   1  0.5250 26.657008  9.603726 18.130367
312   1  0.5250 26.657008  9.603726 26.657008
313   1  0.5250 26.657008 18.130367  1.077085
314   1  0.5250 26.657008 18.130367  9.603726
315   1  0.5250 26.657008 18.130367 18.130367
316   1  0.5250 26.657008 18.130367 26.657008
317   1  0.5250 26.657008 26.657008  1.077085
318   1  0.5250 26.657008 26.657008  9.603726
319   1  0.5250 26.657008 26.657008 18.130367
320   1  0.5250 26.657008 26.657008 26.657008
321   1  0.5250  2.108323  2.154998  6.371643
322   1  0.5250  2.108323  2.154998 14.898284
323   1  0.5250  2.108323  2.154998 23.424925
324   1  0.5250  2.108323  2.154998 31.951566
325   1  0.5250  2.108323 10.681639  6.371643
326   1  0.5250  2.108323 10.681639 14.898284
327   1  0.5250  2.108323 10.681639 23.424925
328   1  0.5250  2.108323 10.681639 31.951566
329   1  0.5250  2.108323 19.208280  6.371643
330   1  0.5250  2.108323 19.208280 14.898284
331   1  0.5250  2.108323 19.208280 23.424925
332   1  0.5250  2.108323 19.208280 31.951566
333   1  0.5250  2.108323 27.734921  6.371643
334   1  0.5250  2.108323 27.734921 14.898284
335   1  0.5250  2.108323 27.734921 23.424925
336   1  0.5250  2.108323 27.734921 31.951566
337   1  0.5250 10.634964  2.154998  6.371643
338   1  0.5250 10.634964  2.154998 14.898284
339   1  0.5250 10.634964  2.154998 23.424925
340   1  0.5250 10.634964  2.154998 31.951566
341   1  0.5250 10.634964 10.681639  6.371643
342   1  0.5250 10.634964 10.681639 14.898284
343   1  0.5250 10.634964 10.681639 23.424925
344   1  0.5250 10.634964 10.681639 31.951566
345   1  0.5250 10.634964 19.208280  6.371643
346   1  0.5250 10.634964 19.208280 14.898284
347   1  0.5250 10.634964 19.208280 23.424925
348   1  0.5250 10.634964 19.208280 31.951566
349   1  0.5250 10.634964 27.734921  6.371643
350   1  0.5250 10.634964 27.734921 14.898284
351   1  0.5250 10.634964 27.734921 23.424925
352   1  0.5250 10.634964 27.734921 31.951566
353   1  0.5250 19.161605  2.154998  6.371643
354   1  0.5250 19.161605  2.154998 14.898284
355   1  0.5250 19.161605  2.154998 23.424925
356   1  0.5250 19.161605  2.154998 31.951566
357   1  0.5250 19.161605 10.681639  6.371643
358   1  0.5250 19.161605 10.681639 14.898284
359   1  0.5250 19.161605 10.681639 23.424925
360   1  0.5250 19.161605 10.681639 31.951566
361   1  0.5250 19.161605 19.208280  6.371643
362   1  0.5250 19.161605 19.208280 14.898284
363   1  0.5250 19.161605 19.208280 23.424925
364   1  0.5250 19.161605 19.208280 31.951566
365   1  0.5250 19.161605 27.734921  6.371643
366   1  0.5250 19.161605 27.734921 14.898284
367   1  0.5250 19.161605 27.734921 23.424925
368   1  0.5250 19.161605 27.734921 31.951566
369   1  0.5250 27.688246  2.154998  6.371643
370   1  0.5250 27.688246  2.154998 14.898284
371   1  0.5250 27.688246  2.154998 23.424925
372   1  0.5250 27.688246  2.154998 31.951566
373   1  0.5250 27.688246 10.681639  6.371643
374   1  0.5250 27.688246 10.681639 14.898284
375   1  0.5250 27.688246 10.681639 23.424925
376   1  0.5250 27.688246 10.681639 31.951566
377   1  0.5250 27.688246 19.208280  6.371643
378   1  0.5250 27.688246 19.208280 14.898284
379   1  0.5250 27.688246 19.208280 23.424925
380   1  0.5250 27.688246 19.208280 31.951566
381   1  0.5250 27.688246 27.734921  6.371643
382   1  0.5250 27.688246 27.734921 14.898284
383   1  0.5250 27.688246 27.734921 23.424925
384   1  0.5250 27.688246 27.734921 31.951566
385   1  0.5250  2.154998  6.371643  2.108323
386   1  0.5250  2.154998  6.371643 10.634964
387   1  0.5250  2.154998  6.371643 19.161605
388   1  0.5250  2.154998  6.371643 27.688246
389   1  0.5250  2.154998 14.898284  2.108323
390   1  0.5250  2.154998 14.898284 10.634964
391   1  0.5250  2.154998 14.898284 19.161605
392   1  0.5250  2.154998 14.898284 27.688246
393   1  0.5250  2.154998 23.424925  2.108323
394   1  0.5250  2.154998 23.424925 10.634964
395   1  0.5250  2.154998 23.424925 19.161605
396   1  0.5250  2.154998 23.424925 27.688246
397   1  0.5250  2.154998 31.951566  2.108323
398   1  0.5250  2.154998 31.951566 10.634964
399   1  0.5250  2.154998 31.951566 19.161605
400   1  0.5250  2.154998 31.951566 27.688246
401   1  0.5250 10.681639  6.371643  2.108323
402   1  0.5250 10.681639  6.371643 10.634964
403   1  0.5250 10.681639  6.371643 19.161605
404   1  0.5250 10.681639  6.371643 27.688246
405   1  0.5250 10.681639 14.898284  2.108323
406   1  0.5250 10.681639 14.898284 10.634964
407   1  0.5250 10.681639 14.898284 19.161605
408   1  0.5250 10.681639 14.898284 27.688246
409   1  0.5250 10.681639 23.424925  2.108323
410   1  0.5250 10.681639 23.424925 10.634964
411   1  0.5250 10.681639 23.424925 19.161605
412   1  0.5250 10.681639 23.424925 27.688246
413   1  0.5250 10.681639 31.951566  2.108323
414   1  0.5250 10.681639 31.951566 10.634964
415   1  0.5250 10.681639 31.951566 19.161605
416   1  0.5250 10.681639 31.951566 27.688246
417   1  0.5250 19.208280  6.371643  2.108323
418   1  0.5250 19.208280  6.371643 10.634964
419   1  0.5250 19.208280  6.371643 19.161605
420   1  0.5250 19.208280  6.371643 27.688246
421   1  0.5250 19.208280 14.898284  2.108323
422   1  0.5250 19.208280 14.898284 10.634964
423   1  0.5250 19.208280 14.898284 19.161605
424   1  0.5250 19.208280 14.898284 27.688246
425   1  0.5250 19.208280 23.424925  2.108323
426   1  0.5250 19.208280 23.424925 10.634964
427   1  0.5250 19.208280 23.424925 19.161605
428   1  0.5250 19.208280 23.424925 27.688246
429   1  0.5250 19.208280 31.951566  2.108323
430   1  0.5250 19.208280 31.951566 10.634964
431   1  0.5250 19.208280 31.951566 19.161605
432   1  0.5250 19.208280 31.951566 27.688246
433   1  0.5250 27.734921  6.371643  2.108323
434   1  0.5250 27.734921  6.371643 10.634964
435   1  0.5250 27.734921  6.371643 19.161605
436   1  0.5250 27.734921  6.371643 27.688246
437   1  0.5250 27.734921 14.898284  2.108323
438   1  0.5250 27.734921 14.898284 10.634964
439   1  0.5250 27.734921 14.898284 19.161605
440   1  0.5250 27.734921 14.898284 27.688246
441   1  0.5250 27.734921 23.424925  2.108323
442   1  0.5250 27.734921 23.424925 10.634964
443   1  0.5250 27.734921 23.424925 19.161605
444   1  0.5250 27.734921 23.424925 27.688246
445   1  0.5250 27.734921 31.951566  2.108323
446   1  0.5250 27.734921 31.951566 10.634964
447   1  0.5250 27.734921 31.951566 19.161605
448   1  0.5250 27.734921 31.951566 27.688246
449   1  0.5250  3.186235  7.449556  5.340406
450   1  0.5250  3.186235  7.449556 13.867047
451   1  0.5250  3.186235  7.449556 22.393688
452   1  0.5250  3.186235  7.449556 30.920329
453   1  0.5250  3.186235 15.976197  5.340406
454   1  0.5250  3.186235 15.976197 13.867047
455   1  0.5250  3.186235 15.976197 22.393688
456   1  0.5250  3.186235 15.976197 30.920329
457   1  0.5250  3.186235 24.502838  5.340406
458   1  0.5250  3.186235 24.502838 13.867047
459   1  0.5250  3.186235 24.502838 22.393688
460   1  0.5250  3.186235 24.502838 30.920329
461   1  0.5250  3.186235 33.029479  5.340406
462   1  0.5250  3.186235 33.029479 13.867047
463   1  0.5250  3.186235 33.029479 22.393688
464   1  0.5250  3.186235 33.029479 30.920329
465   1  0.5250 11.712876  7.449556  5.340406
466   1  0.5250 11.712876  7.449556 13.867047
467   1  0.5250 11.712876  7.449556 22.393688
468   1  0.5250 11.712876  7.449556 30.920329
469   1  0.5250 11.712876 15.976197  5.340406
470   1  0.5250 11.712876 15.976197 13.867047
471   1  0.5250 11.712876 15.976197 22.393688
472   1  0.5250 11.712876 15.976197 30.920329
473   1  0.5250 11.712876 24.502838  5.340406
474   1  0.5250 11.712876 24.502838 13.867047
475   1  0.5250 11.712876 24.502838 22.393688
476   1  0.5250 11.712876 24.502838 30.920329
477   1  0.5250 11.712876 33.029479  5.340406
478   1  0.5250 11.712876 33.029479 13.867047
479   1  0.5250 11.712876 33.029479 22.393688
480   1  0.5250 11.712876 33.029479 30.920329
481   1  0.5250 20.239517  7.449556  5.340406
482   1  0.5250 20.239517  7.449556 13.867047
483   1  0.5250 20.239517  7.449556 22.393688
484   1  0.5250 20.239517  7.449556 30.920329
485   1  0.5250 20.239517 15.976197  5.340406
486   1  0.5250 20.239517 15.976197 13.867047
487   1  0.5250 20.239517 15.976197 22.393688
488   1  0.5250 20.239517 15.976197 30.920329
489   1  0.5250 20.239517 24.502838  5.340406
490   1  0.5250 20.239517 24.502838 13.867047
491   1  0.5250 20.239517 24.502838 22.393688
492   1  0.5250 20.239517 24.502838 30.920329
493   1  0.5250 20.239517 33.029479  5.340406
494   1  0.5250 20.239517 33.029479 13.867047
495   1  0.5250 20.239517 33.029479 22.393688
496   1  0.5250 20.239517 33.029479 30.920329
497   1  0.5250 28.766158  7.449556  5.340406
498   1  0.5250 28.766158  7.449556 13.867047
499   1  0.5250 28.766158  7.449556 22.393688
500   1  0.5250 28.766158  7.449556 30.920329
501   1  0.5250 28.766158 15.976197  5.340406
502   1  0.5250 28.766158 15.976197 13.867047
503   1  0.5250 28.766158 15.976197 22.393688
504   1  0.5250 28.766158 15.976197 30.920329
505   1  0.5250 28.766158 24.502838  5.340406
506   1  0.5250 28.766158 24.502838 13.867047
507   1  0.5250 28.766158 24.502838 22.393688
508   1  0.5250 28.766158 24.502838 30.920329
509   1  0.5250 28.766158 33.029479  5.340406
510   1  0.5250 28.766158 33.029479 13.867047
511   1  0.5250 28.766158 33.029479 22.393688
512   1  0.5250 28.766158 33.029479 30.920329
513   2  2.1960  5.261313  1.041666  5.359318
514   2  2.1960  5.261313  1.041666 13.885959
515   2  2.1960  5.261313  1.041666 22.412600
516   2  2.1960  5.261313  1.041666 30.939241
517   2  2.1960  5.261313  9.568307  5.359318
518   2  2.1960  5.261313  9.568307 13.885959
519   2  2.1960  5.261313  9.568307 22.412600
520   2  2.1960  5.261313  9.568307 30.939241
521   2  2.1960  5.261313 18.094948  5.359318
522   2  2.1960  5.261313 18.094948 13.885959
523   2  2.1960  5.261313 18.094948 22.412600
524   2  2.1960  5.261313 18.094948 30.939241
525   2  2.1960  5.261313 26.621589  5.359318
526   2  2.1960  5.261313 26.621589 13.885959
527   2  2.1960  5.261313 26.621589 22.412600
528   2  2.1960  5.261313 26.621589 30.939241
529   2  2.1960 13.787954  1.041666  5.359318
530   2  2.1960 13.787954  1.041666 13.885959
531   2  2.1960 13.787954  1.041666 22.412600
532   2  2.1960 13.787954  1.041666 30.939241
533   2  2.1960 13.787954  9.568307  5.359318
534   2  2.1960 13.787954  9.568307 13.885959
535   2  2.1960 13.787954  9.568307 22.412600
536   2  2.1960 13.787954  9.568307 30.939241
537   2  2.1960 13.787954 18.094948  5.359318
538   2  2.1960 13.787954 18.094948 13.885959
539   2  2.1960 13.787954 18.094948 22.412600
540   2  2.1960 13.787954 18.094948 30.939241
541   2  2.1960 13.787954 26.621589  5.359318
542   2  2.1960 13.787954 26.621589 13.885959
543   2  2.1960 13.787954 26.621589 22.412600
544   2  2.1960 13.787954 26.621589 30.939241
545   2  2.1960 22.314595  1.041666  5.359318
546   2  2.1960 22.314595  1.041666 13.885959
547   2  2.1960 22.314595  1.041666 22.412600
548   2  2.1960 22.314595  1.041666 30.939241
549   2  2.1960 22.314595  9.568307  5.359318
550   2  2.1960 22.314595  9.568307 13.885959
551   2  2.1960 22.314595  9.568307 22.412600
552   2  2.1960 22.314595  9.568307 30.939241
553   2  2.1960 22.314595 18.094948  5.359318
554   2  2.1960 22.314595 18.094948 13.885959
555   2  2.1960 22.314595 18.094948 22.412600
556   2  2.1960 22.314595 18.094948 30.939241
557   2  2.1960 22.314595 26.621589  5.359318
558   2  2.1960 22.314595 26.621589 13.885959
559   2  2.1960 22.314595 26.621589 22.412600
560   2  2.1960 22.314595 26.621589 30.939241
561   2  2.1960 30.841236  1.041666  5.359318
562   2  2.1960 30.841236  1.041666 13.885959
563   2  2.1960 30.841236  1.041666 22.412600
564   2  2.1960 30.841236  1.041666 30.939241
565   2  2.1960 30.841236  9.568307  5.359318
566   2  2.1960 30.841236  9.568307 13.885959
567   2  2.1960 30.841236  9.568307 22.412600
568   2  2.1960 30.841236  9.568307 30.939241
569   2  2.1960 30.841236 18.094948  5.359318
570   2  2.1960 30.841236 18.094948 13.885959
571   2  2.1960 30.841236 18.094948 22.412600
572   2  2.1960 30.841236 18.094948 30.939241
573   2  2.1960 30.841236 26.621589  5.359318
574   2  2.1960 30.841236 26.621589 13.885959
575   2  2.1960 30.841236 26.621589 22.412600
576   2  2.1960 30.841236 26.621589 30.939241
577   2  2.1960  5.304986  7.430644  3.265328
578   2  2.1960  5.304986  7.430644 11.791969
579   2  2.1960  5.304986  7.430644 20.318610
580   2  2.1960  5.304986  7.430644 28.845251
581   2  2.1960  5.304986 15.957285  3.265328
582   2  2.1960  5.304986 15.957285 11.791969
583   2  2.1960  5.304986 15.957285 20.318610
584   2  2.1960  5.304986 15.957285 28.845251
585   2  2.1960  5.304986 24.483926  3.265328
586   2  2.1960  5.304986 24.483926 11.791969
587   2  2.1960  5.304986 24.483926 20.318610
588   2  2.1960  5.304986 24.483926 28.845251
589   2  2.1960  5.304986 33.010567  3.265328
590   2  2.1960  5.304986 33.010567 11.791969
591   2  2.1960  5.304986 33.010567 20.318610
592   2  2.1960  5.304986 33.010567 28.845251
593   2  2.1960 13.831627  7.430644  3.265328
594   2  2.1960 13.831627  7.430644 11.791969
595   2  2.1960 13.831627  7.430644 20.318610
596   2  2.1960 13.831627  7.430644 28.845251
597   2  2.1960 13.831627 15.957285  3.265328
598   2  2.1960 13.831627 15.957285 11.791969
599   2  2.1960 13.831627 15.957285 20.318610
600   2  2.1960 13.831627 15.957285 28.845251
601   2  2.1960 13.831627 24.483926  3.265328
602   2  2.1960 13.831627 24.483926 11.791969
603   2  2.1960 13.831627 24.483926 20.318610
604   2  2.1960 13.831627 24.483926 28.845251
605   2  2.1960 13.831627 33.010567  3.265328
606   2  2.1960 13.831627 33.010567 11.791969
607   2  2.1960 13.831627 33.010567 20.318610
608   2  2.1960 13.831627 33.010567 28.845251
609   2  2.1960 22.358268  7.430644  3.265328
610   2  2.1960 22.358268  7.430644 11.791969
611   2  2.1960 22.358268  7.430644 20.318610
612   2  2.1960 22.358268  7.430644 28.845251
613   2  2.1960 22.358268 15.957285  3.265328
614   2  2.1960 22.358268 15.957285 11.791969
615   2  2.1960 22.358268 15.957285 20.318610
616   2  2.1960 22.358268 15.957285 28.845251
617   2  2.1960 22.358268 24.483926  3.265328
618   2  2.1960 22.358268 24.483926 11.791969
619   2  2.1960 22.358268 24.483926 20.318610
620   2  2.1960 22.358268 24.483926 28.845251
621   2  2.1960 22.358268 33.010567  3.265328
622   2  2.1960 22.358268 33.010567 11.791969
623   2  2.1960 22.358268 33.010567 20.318610
624   2  2.1960 22.358268 33.010567 28.845251
625   2  2.1960 30.884909  7.430644  3.265328
626   2  2.1960 30.884909  7.430644 11.791969
627   2  2.1960 30.884909  7.430644 20.318610
628   2  2.1960 30.884909  7.430644 28.845251
629   2  2.1960 30.884909 15.957285  3.265328
630   2  2.1960 30.884909 15.957285 11.791969
631   2  2.1960 30.884909 15.957285 20.318610
632   2  2.1960 30.884909 15.957285 28.845251
633   2  2.1960 30.884909 24.483926  3.265328
634   2  2.1960 30.884909 24.483926 11.791969
635   2  2.1960 30.884909 24.483926 20.318610
636   2  2.1960 30.884909 24.483926 28.845251
637   2  2.1960 30.884909 33.010567  3.265328
638   2  2.1960 30.884909 33.010567 11.791969
639   2  2.1960 30.884909 33.010567 20.318610
640   2  2.1960 30.884909 33.010567 28.845251
641   2  2.1960  5.359318  5.261313  1.041666
642   2  2.1960  5.359318  5.261313  9.568307
643   2  2.1960  5.359318  5.261313 18.094948
644   2  2.1960  5.359318  5.261313 26.621589
645   2  2.1960  5.359318 13.787954  1.041666
646   2  2.1960  5.359318 13.787954  9.568307
647   2  2.1960  5.359318 13.787954 18.094948