LAMMPS data file via write_data, version 29 Aug 2024, timestep = 150076, units = metal

3072 atoms
4 atom types

-10.58558978010419 29.7926397801031 xlo xhi
-19.26817963526045 54.22937663526056 ylo yhi
-27.077214527231487 76.20753452723362 zlo zhi

Masses

1 6.941
2 10.811
3 15.9994
4 18.998403

Atoms # charge

643 2 -1 -7.087592633026359 -16.71170113351831 -25.342061218710356 1 2 1
1069 2 -1 11.744447532296274 -19.05797612637246 -10.85911715689425 0 1 0
426 1 3 2.136172188251976 -18.709082499350128 -23.314396260103578 1 1 0
2062 3 -2 3.3612665614088524 -18.061047420896557 -24.296309388340003 0 1 0
1930 3 -2 4.5737247827531515 -15.36136935995619 -25.829310280295374 0 1 0
1738 3 -2 5.301851067139561 -15.572610150514826 -22.53592708253941 -1 1 0
250 1 3 4.017666710621434 -15.232194059982518 -21.115545575411137 1 1 0
288 1 3 4.295272064734158 -16.22570694458095 -24.21066997124328 0 1 1
2109 3 -2 2.4640264942230825 -15.518207234809392 -22.502752952444915 1 1 0
2910 4 1 8.079483233862593 -17.19310052613431 -20.297077020814317 -1 2 0
1078 2 -1 11.094209277473645 -18.29366244855341 -0.32743925085098374 1 1 0
3054 4 1 29.040358645763146 15.935570955093663 5.568784523736989 0 2 0
559 2 -1 -1.7731382798631703 -18.88708160775578 -17.04863138777257 1 1 1
2025 3 -2 20.753915594204145 7.254228127482094 -26.51535364732354 -1 0 0
1269 2 -1 22.766922010899773 -17.807061174842 -23.23985642723198 -2 1 0
693 2 -1 27.211188744829304 -18.593300352610534 -25.04820358729086 0 0 1
1829 3 -2 23.730079566046808 5.479164365722998 -26.930297988072684 -1 0 0
2584 4 1 25.370941655744016 -16.73152466386917 -24.488347702830787 0 0 1
2676 4 1 -6.781328276256742 -12.48839903401644 -25.378036207014294 2 0 1
1564 3 -2 -5.375769639409758 -8.009626457577198 -25.167242519999256 1 1 1
3068 4 1 -3.63721291388621 -12.948462959175773 -25.913198045468125 1 0 1
482 1 3 -5.768192014922824 -7.764507140613164 -26.930956477384964 1 0 0
3050 4 1 -8.947232400030977 -9.010578640542416 -22.52328545288317 0 0 1
1961 3 -2 -6.748634242633929 -8.285264020510358 -22.067848573105667 1 1 0
229 1 3 -5.351931566960188 -9.317345999824706 -23.2398597393685 0 0 0
1762 3 -2 -5.345830309021887 -10.953129411125119 -23.816884217505244 1 0 0
1509 3 -2 -3.4350964359289264 -8.86537007971558 -22.380197503289818 0 0 0
5 1 3 0.3639644701531921 -8.58865603127662 -24.61540330490648 0 0 0
1973 3 -2 1.3578839009404007 -8.097189290086028 -22.810951034482404 0 0 0
1425 3 -2 1.1708806310640831 -8.745680326680537 -26.164088353993314 0 0 0
1920 3 -2 -0.8449836786513281 -9.906163040609949 -23.840852342949958 1 1 1
94 1 3 -1.9079197207186986 -10.141620149595239 -22.256644454454314 1 1 0
2046 3 -2 -1.7652058394618493 -10.69516470724199 -20.393526472835454 1 1 0
3066 4 1 2.9851609503147216 -10.09368982649579 -22.403855621846088 2 0 0
1902 3 -2 9.124391861360696 -7.689975356293354 -22.929084398750668 1 1 0
1378 3 -2 3.533458971303613 -6.880088871598563 -21.138990046439567 1 0 0
357 1 3 8.647949025479281 -7.490390642241222 -20.989493825706745 0 0 0
2354 4 1 10.97958243441505 -8.891369778130747 -23.866338430595658 -2 0 1
555 2 -1 13.264212867869272 -10.944548548228529 -24.456735336682033 0 0 0
3022 4 1 0.8113991594552754 17.462402388012062 -17.949906716108067 0 1 0
1320 3 -2 22.066140014611403 -6.808231628208926 -25.602096772930476 0 0 1
902 2 -1 16.828522616908742 -12.682773872628573 -22.000075312187047 0 1 0
2683 4 1 19.843015627524128 -9.44448409699824 -25.341962404801876 0 1 0
881 2 -1 -8.705507122611387 -10.532577535058156 -24.93621178347182 -1 0 0
1196 2 -1 28.539499389567855 -10.55786219577642 -20.10769077550298 0 1 1
85 1 3 -6.828637375502641 -6.163086218127523 -21.96880845389974 0 0 0
1764 3 -2 -8.131385626872344 -5.532779724425888 -23.04130205036102 0 0 1
2311 4 1 -7.069053680185817 -3.8650947860872265 -24.72944259294969 0 0 0
2467 4 1 29.635536446709903 -6.724178859151996 -24.839413888110762 -1 0 1
1377 3 -2 -5.695455231476037 -5.140614566294097 -21.06718039596646 0 0 0
1849 3 -2 1.2926858139204551 -4.933279931997275 -22.198967531680744 1 1 0
341 1 3 2.1381629522715055 -6.663094604480934 -22.08162708675024 0 0 0
1385 3 -2 -1.0173174772526448 -6.333449275486913 -25.35354001130011 0 0 0
1881 3 -2 -0.273122954594621 -3.614535501525374 -24.601969113114407 0 0 0
84 1 3 -1.4158705148937223 -4.8136070633557235 -25.735928417211287 0 0 1
2946 4 1 -3.105559467245313 -7.120998995239637 -24.07051369190697 -2 1 1
1386 3 -2 2.323302863563997 -2.043156219521464 -23.273111065316822 0 0 0
1897 3 -2 -3.2744963235245113 -3.9765420766364894 -25.673583225378046 0 0 0
258 1 3 0.6744285727339285 -3.2241081968930807 -22.981023482932986 0 0 0
1427 3 -2 0.18542316178255014 -2.5438783814304813 -21.020983180437074 1 0 0
2833 4 1 4.190644646728538 -3.1416514073714588 -22.52053902704567 2 -2 1
2145 3 -2 8.348463760626068 -4.999575309550224 -24.738410514523828 0 0 0
218 1 3 6.780507434064976 -3.9395003030367626 -24.31236413176296 0 0 0
1765 3 -2 5.915499117249649 -3.0751044813932467 -25.57446476550622 0 0 0
2457 4 1 4.925817197727415 -1.6705635134703662 -19.660502474811274 0 1 0
1953 3 -2 22.798175011199657 6.6811885804146804 2.472868994700222 0 0 0
2113 3 -2 8.384032848882178 -5.656823148712503 -21.52817299882015 0 0 0
1313 3 -2 6.785501067931083 -3.4635308442620314 -22.66177283102036 0 0 0
485 1 3 8.092270037654377 -3.7755828329832237 -20.892650815328896 0 0 0
385 1 3 9.163679914612398 -5.9035136767235326 -23.233673900881648 0 0 0
1382 3 -2 11.08131820291582 -4.77986939357921 -23.270322303519723 0 0 0
2088 3 -2 11.658819047500653 -1.5063849410801033 -23.35624875393667 0 0 1
373 1 3 11.544367606290571 -3.0872218286071096 -22.163803764032888 0 0 0
2072 3 -2 16.23450194026803 -3.0173268973393412 -26.29782856166556 0 0 1
1316 3 -2 13.172819236854735 -3.223167336666098 -21.125795791518836 0 0 1
1477 3 -2 9.864082904658243 -2.846996982582752 -20.8780323333907 0 0 0
38 1 3 14.865014658703483 -2.3639715330401465 -20.981582227603205 0 0 0
472 1 3 15.791543026954411 -1.966933653469173 -24.658521057441707 0 0 1
2049 3 -2 15.306123128180587 -3.2783740086749233 -23.005935610349695 -1 0 0
1429 3 -2 14.366940526775348 -0.7893182642025103 -24.831736243939414 0 0 0
2383 4 1 16.489661854708363 -5.794043388949426 -23.475265232372077 1 1 1
2715 4 1 12.908327159947326 -6.15123883308563 -20.623478720972646 -1 0 0
2644 4 1 10.706008120385924 -2.8956941649426504 -25.62987753931411 0 0 1
2165 3 -2 20.766531514205564 -5.9757245527909095 -21.373226538984827 0 0 0
292 1 3 21.181986005539457 -5.1124807638300585 -25.95520181413991 0 0 1
2293 3 -2 16.892558250235957 -0.6629211436572433 -23.463451833389524 0 0 0
321 1 3 18.09775430883964 -1.511630706561487 -22.2124072588524 -1 0 0
1284 3 -2 20.651137746639872 -4.7336739891231385 -24.323905144672963 -1 0 1
164 1 3 20.810529950757026 -4.362129073473106 -22.666035113954692 0 0 1
1685 3 -2 19.145717020268567 -3.0763734925278676 -22.669969182305383 0 0 0
2264 3 -2 22.76279940747288 -3.2961245475353085 -23.121488720945994 0 0 1
1748 3 -2 22.908605229683655 -2.7543971181055085 -26.54767910958854 0 0 1
3011 4 1 21.524374748915296 -0.6495143088843669 -22.29478677542195 -1 -1 0
2707 4 1 25.021352538141247 -7.2869423093006045 -24.751389983106062 1 0 0
1896 3 -2 23.06932501295795 -6.604962229470653 -19.839789811085154 0 0 1
1780 3 -2 27.70458626369962 -2.5754960936606466 -26.734624377554255 0 0 1
1645 3 -2 27.6428540669848 -5.829510851079654 -25.38083772489639 0 1 0
1760 3 -2 25.344167352604142 -4.007759411901596 -24.537641994371697 0 1 1
96 1 3 23.72013832717553 -2.842889464303145 -24.596092653901152 0 1 1
414 1 3 27.125962444836272 -4.021141289376612 -25.502639699813933 0 1 0
1505 3 -2 24.393366531088073 -1.308112850744937 -23.47998314791808 0 0 0
2822 4 1 24.313308194942973 -4.7593237066503935 -21.422600367599934 0 1 0
2073 3 -2 -6.4921775616465265 4.295572551815692 -24.312335366274258 0 0 0
2515 4 1 -5.772682044521337 2.4875380389946073 -22.27150285565018 0 0 0
783 2 -1 -6.701815045215975 -1.2090286475097933 -22.788715788229112 -1 0 1
1462 3 -2 -8.485616870198252 5.477472222813969 -26.007211799991683 1 0 0
116 1 3 -8.133480650390968 3.5930262613509996 -24.975091100503526 1 0 1
2224 3 -2 -7.322073456349012 2.385327817906166 -26.67273723815893 1 1 1
1569 3 -2 -9.569907524719202 3.3011687954786915 -24.044191045957003 1 0 0
92 1 3 -10.455211873954791 3.5073363732981484 -22.15540370735385 1 1 1
2672 4 1 29.522150771366388 -19.193103512866415 -24.125920319161906 -1 1 1
473 1 3 2.344935350820318 -0.37734447301933827 -24.382984832739947 0 0 0
2229 3 -2 1.8123507395232359 -0.39563473924514625 -26.124351536219798 0 0 0
2877 4 1 -1.9139034003787359 3.336386930033509 -25.08105604361231 1 1 0
1741 3 -2 1.744032701938016 0.7618705267214843 -23.098637794198424 0 1 0
2919 4 1 -0.4465184297656979 -0.11122950571829548 -22.051420235144757 2 0 0
1526 3 -2 1.0497170493581667 3.560917327522059 -21.007778425648986 0 0 0
178 1 3 2.1338718820788944 2.493559286643908 -22.024469334273626 1 0 0
2867 4 1 -4.0467912354684215 -2.1452937869448867 -22.320072820929227 2 0 1
2436 4 1 -1.3098872192329836 -1.1344648314404466 -26.5173135845679 -1 0 1
1135 2 -1 -3.3645172615030967 0.559313559482213 -21.637033762278453 0 1 1
1301 3 -2 4.279227104043999 -0.13983597021644556 -24.522973890748812 0 0 0
1806 3 -2 7.070986758466226 0.8607938034425864 -25.25875855916672 0 1 0
362 1 3 6.065858504322538 -0.07534448521547077 -24.094158195215577 0 0 0
1441 3 -2 6.118909514431916 0.34281896310066884 -22.21085700544813 0 0 0
21 1 3 5.5425175799342945 1.786394364066517 -21.057536213804706 0 0 0
2209 3 -2 6.279187569584771 3.3578019305558833 -21.71849705870225 0 0 0
1729 3 -2 3.513542169957425 2.123351389024265 -21.309901871690453 -1 0 0
329 1 3 7.211397779718585 4.213213892824189 -23.698971052786977 -1 0 0
1577 3 -2 7.898562387186818 4.204104502680806 -25.4293348233517 0 0 0
3071 4 1 9.353209312836356 1.3291235372333823 -25.841169496637235 2 -1 1
2446 4 1 6.085054733583188 1.9657265191083653 -26.72527759068831 0 1 0
2742 4 1 7.931173907756616 -0.43326670858694527 -20.275251099947383 2 1 0
1703 3 -2 21.84266118948523 8.554064367153714 4.2952679154310145 1 0 0
2001 3 -2 11.283065860221864 -1.0332293428668358 -26.671277835624515 0 0 0
100 1 3 12.306567676451504 -0.5463313895367037 -24.920069245174297 0 0 1
2161 3 -2 11.73650790057814 1.5677017580508092 -24.954774745002837 0 0 0
1882 3 -2 14.805837688702212 -0.5119130118189545 -21.177050850402452 0 0 0
149 1 3 14.676819212205846 1.085046265606337 -21.99243118865126 0 0 0
65 1 3 13.275520677893525 4.449579637290718 -23.074595502802026 -1 0 0
1589 3 -2 13.405917149894478 4.005369525480731 -25.081327517464885 0 0 0
289 1 3 12.007901546310428 2.9210251660862667 -26.125510263044507 0 0 0
2787 4 1 15.448244887646737 1.450332135763169 -26.75142844710161 0 -1 1
1905 3 -2 13.924978377871998 2.714518563179535 -21.87475451628584 0 0 0
2398 4 1 18.638017549040903 0.33577307304057413 -24.848350485298024 0 1 0
1893 3 -2 21.211046274944028 0.448543981613728 -26.17547934604861 0 0 0
2150 3 -2 17.536839159273097 2.9053771417434326 -20.839179429627876 0 0 0
1985 3 -2 18.94252882349488 0.0926260945430677 -21.490961432976796 -1 0 0
421 1 3 22.304307559962407 1.550337195541065 -24.89136285241146 0 0 0
1717 3 -2 21.096263144938945 3.0920299838788665 -24.309551254510144 0 0 0
337 1 3 21.830498235824574 3.209521344428701 -22.076813286421658 -1 0 0
2218 3 -2 20.754269155797743 2.6298718971823583 -20.908823644681025 0 0 0
2093 3 -2 23.03278917905818 1.3986987513998201 -23.29448825785157 0 1 0
53 1 3 16.879752317221 4.5186194615599256 -20.471907979029513 0 0 0
2033 3 -2 23.413746458998443 4.332376411472868 -20.999923279529213 0 0 0
97 1 3 24.784276097068012 3.98502594042397 -26.810421373462525 0 0 0
1828 3 -2 23.535085086496093 0.17929590834032894 -20.442305401886134 0 0 1
1981 3 -2 26.38857146494107 1.2175933255629303 -21.465900180583322 0 1 0
180 1 3 24.522702434564454 0.12055352085159754 -22.13237428736546 0 0 1
260 1 3 27.30424712908849 2.268028590306667 -20.704109009625597 -1 0 1
2285 3 -2 29.19463369641746 2.376327176974087 -20.28198717618609 0 1 0
2201 3 -2 23.8488803199276 2.2062210494083487 -26.50829918328107 -1 0 0
1318 3 -2 19.42897134857303 7.521923133223794 1.9235114449264532 1 0 0
1553 3 -2 28.04031371532052 3.8401124866708507 -22.947415735753584 0 0 0
25 1 3 26.5835228734303 4.439419171257732 -23.59450317409668 -1 0 0
1974 3 -2 26.187204687169686 3.9969441283130536 -25.31073181440872 0 0 0
1757 3 -2 26.220507167073233 3.8347243731566465 -20.18857672787183 0 1 0
1418 3 -2 -6.640580665046792 7.622712772309452 -25.520301933363083 0 0 0
474 1 3 -6.27262397504106 8.742037708879266 -23.944246788438754 0 0 0
1354 3 -2 -5.156648296390752 6.032261969044736 -21.93578651829071 0 0 0
265 1 3 -4.946179529554136 5.61893862523457 -23.612845311873144 0 0 0
2661 4 1 -6.745949060465684 9.371964241823846 -20.53085890861201 0 0 0
2158 3 -2 -10.113978923513075 5.6250945935049685 -21.44747676170748 1 1 0
2074 3 -2 -4.989066193661796 9.829665512220132 -23.629786238522417 0 0 0
1025 2 -1 -8.965233642248963 9.754667466667211 -26.615579346160583 -1 -1 1
1529 3 -2 -7.390239618543021 8.913329749869572 -22.773530534673817 1 0 0
2674 4 1 -8.005882852132446 6.38286246297886 -20.59151269451893 3 0 1
2781 4 1 -10.34713925428942 7.22789319469825 -23.98291867573192 1 1 0
2749 4 1 -3.812727633592875 9.964859939131554 -26.551452827407655 1 0 0
1958 3 -2 -1.9854259476232734 9.16476945376727 -22.597716207211512 0 0 0
505 1 3 -2.8814665946740092 10.648202899314217 -22.99483273837706 1 0 0
1898 3 -2 -3.3142874282195827 6.2449151073141245 -23.835955558059258 0 0 0
378 1 3 -1.9367252269211317 7.016707728302915 -22.82078171121345 0 0 0
2186 3 -2 1.398894343290884 6.530221080018258 -20.766967404452 0 0 0
1714 3 -2 -1.7414451911120086 6.130652672621938 -20.783612256544444 1 0 0
1397 3 -2 -0.1975287582131724 6.833111783988766 -23.359410093027268 1 0 0
349 1 3 1.8097566762751285 7.7544105151892175 -22.624269899252134 0 0 0
2249 3 -2 1.803676738804116 9.671593446686913 -22.31449350798859 0 0 0
1926 3 -2 -2.247410978289814 11.430690786107288 -24.854492287083072 0 0 0
169 1 3 0.19000523226764443 5.163405244313033 -20.011332139717233 0 0 0
1689 3 -2 2.625918903799638 6.963064694521364 -24.33944333894464 0 0 0
234 1 3 3.8396569116319625 6.248722886254281 -25.39898943955716 0 0 0
1690 3 -2 5.037028828513021 5.247874756062771 -24.25405862325207 0 0 0
1721 3 -2 8.64737323804913 5.315353503924104 -22.419326698973595 0 0 0
2797 4 1 4.288041160935748 5.2595550450006705 -20.465135929621184 0 0 1
245 1 3 8.668086365834899 4.2376546472433425 -27.068023693158263 0 0 0
1115 2 -1 9.050727996273032 9.414126807255364 -25.798868683076893 -1 0 1
1642 3 -2 14.887174816649377 5.857348779280837 -23.012884282304555 0 0 0
2936 4 1 15.197597513204013 5.532598642886885 -25.844211525684475 0 0 0
86 1 3 10.257375686414488 4.96999078549516 -21.419721817140694 0 0 0
1541 3 -2 11.618878654461867 4.684282437620148 -22.336866908708725 -1 0 0
2473 4 1 9.28682044695681 7.728701590018332 -23.460632531088475 0 1 0
2430 4 1 16.820558227732473 9.29331168118097 -22.053815352371995 1 1 0
1857 3 -2 18.199517433017185 9.545831715588836 -26.534056987067032 -1 0 0
2508 4 1 19.71215555371029 5.368850976151691 -24.82283645242155 -1 0 0
393 1 3 19.073459248769527 10.899389729233409 -25.79097342145395 -1 0 0
729 2 -1 20.79042764368378 8.07568569899922 -22.555784883741154 -1 -1 0
88 1 3 22.332963455739556 10.64417386131517 -20.432056387726302 -1 0 1
2453 4 1 21.633536528952508 8.72245308622638 -24.982903728271786 -1 0 0
1133 2 -1 13.20049242127672 11.868882498986164 4.1278447705868935 2 1 -1
2940 4 1 27.9440870547942 6.173456990700942 -20.619279185152866 1 1 0
1601 3 -2 25.709028361542888 6.1610554685762935 -22.849928135876667 -1 0 0
2465 4 1 24.972801758497052 8.862392281247221 -23.40361105276188 0 -1 0
2081 3 -2 23.71681272810879 11.687400697816276 -21.357595380586016 0 0 0
217 1 3 24.824772976724407 4.989640309357494 -20.26764643455095 -1 0 0
1681 3 -2 29.71910980145463 16.489011708695482 -20.496100013336477 -1 0 0
89 1 3 -9.448461503898978 16.686645386262573 -21.77425185793061 0 0 0
2076 3 -2 -7.720660817425422 15.797534380008482 -21.837810262724567 0 0 1
2250 3 -2 -8.074068581981328 17.31826094499002 -26.055653137380986 0 0 0
2060 3 -2 -4.801744080919549 14.783086849877623 -20.678883871938833 0 0 1
204 1 3 -5.806568763519828 16.37396707956299 -21.72502498114756 0 0 1
1910 3 -2 -4.957942130827491 16.03974128921909 -23.76111949397446 1 0 0
2745 4 1 -6.488048717191223 11.728614821326833 -22.96831745709896 2 1 0
669 2 -1 24.049922295968674 -15.345231376609227 -26.415932262889473 -2 3 0
2648 4 1 -5.80655780775567 15.517904167402651 -25.795880814341995 0 0 1
1624 3 -2 -10.29219059611454 16.66670930877118 -23.44023662036142 0 0 1
1317 3 -2 -2.470312262048015 15.675050623870785 -25.375153014484848 0 0 0
1817 3 -2 -3.3718953920695807 12.346799312905024 -21.921263030819265 0 0 0
1525 3 -2 0.786223975197462 11.849897308359076 -24.371959278222754 1 0 0
458 1 3 1.9396427073956364 11.324652305170336 -23.148392969361108 0 0 0
330 1 3 -0.6706422042307807 11.678207325130124 -25.460986333704533 0 0 0
389 1 3 -3.1805066721302895 16.56405216675282 -23.97091004788195 0 0 0
1592 3 -2 -2.2347472111289726 16.88921807592175 -22.44461683527568 1 0 1
201 1 3 -1.2844099268262674 16.462401870353585 -20.9712952798841 0 0 0
1722 3 -2 -1.6219926030224308 14.75880328386 -20.30645569271602 1 0 0
2930 4 1 0.33779181915312506 14.577012333839125 6.542129154673988 3 1 0
2533 4 1 3.6365390739781294 14.795974646621861 -24.91823370105507 0 0 0
1846 3 -2 3.625173696349563 11.908848048639364 -22.929973977423266 1 0 0
885 2 -1 1.4899425109082571 16.349824097742168 -21.833784624127695 -1 -2 2
2719 4 1 6.01521591476018 11.22391980803567 -21.835557613402898 1 0 0
184 1 3 16.58000633521063 13.442053036724413 -24.948673561674205 0 0 1
1752 3 -2 14.830038674500582 12.930282256065578 -25.448978754414266 -1 0 1
2783 4 1 12.703378437838861 12.423514896149658 -25.58478062039504 0 0 1
138 1 3 17.189736821274636 16.780158223127803 -24.894188237972298 -1 0 0
2876 4 1 16.32488213647513 13.812924266957811 -20.756824100296374 -2 0 1
2348 4 1 20.134884179006033 15.575445156057636 -26.98607933324605 -1 0 1
1669 3 -2 17.462951817950632 11.465443749301663 -20.86043829538803 0 0 0
1766 3 -2 18.143777705375374 12.313192087670512 -25.06395165549909 0 0 0
1841 3 -2 20.748487438116655 11.210982996179329 -25.32140441912255 0 0 0
2545 4 1 19.790086730974778 13.646898004161127 -22.439738937136724 0 0 0
2205 3 -2 20.434873334085275 10.614456512049742 -20.82374078883197 -1 0 0
1945 3 -2 16.401583865944055 15.010210879063361 -23.93015557294117 -1 0 0
1777 3 -2 17.890274650531488 15.90023461113049 -26.744984765163093 0 0 0
1677 3 -2 18.88908402657572 17.047092312210108 -24.062871203177114 -1 0 0
2220 3 -2 20.249009809438814 16.991861624971744 -21.30247990392909 -1 0 1
2717 4 1 26.600081434774243 17.104549444567052 -21.699609273915087 -1 0 0
1925 3 -2 27.75227812364184 16.037674144102997 -25.615998739774213 -1 0 0
1485 3 -2 24.71285245623891 17.219781744173954 -25.736515986047454 -1 0 0
1266 2 -1 2.721970121213234 16.30162478456022 1.583509527590366 -1 0 -1
1994 3 -2 25.786994834024984 13.85609319892102 -21.561066115361943 -1 0 0
213 1 3 25.55722298454607 12.005376579929955 -21.70788446929246 -1 0 0
1942 3 -2 26.995569478374502 11.19705467904694 -22.468275109096734 0 0 0
2541 4 1 22.736591649556555 15.350011984731783 -21.074300495521275 -1 0 0
2843 4 1 28.429232389695752 12.715311106756804 -24.067240296910985 -1 0 1
1050 2 -1 -6.441334392247177 -18.388060831481578 -15.809580242630775 -2 0 0
2401 4 1 -8.248341052962212 -14.980041760317679 -15.482514113592853 0 1 0
804 2 -1 -10.505324180428303 -15.035667345461075 -17.57219976876839 1 1 1
3060 4 1 0.8672166510561361 -14.336205058148327 -15.348828187656268 -2 0 1
1833 3 -2 -1.1032417280552895 -14.444396724748907 -14.143190714263211 1 1 0
579 2 -1 5.778411353650249 -17.860028070943503 -13.794747225212976 -2 -1 0
1978 3 -2 6.680031638886206 -16.327899269013734 -17.448923547826322 1 1 0
238 1 3 5.12979765529532 -15.861329286730818 -17.761117711109286 1 1 0
1337 3 -2 4.215902048240478 -16.51752656596245 -19.573574987466277 1 1 0
2235 3 -2 4.5384808245733925 -14.406857858106829 -16.841254606186773 -1 1 0
1289 3 -2 4.519567633341982 -13.315311131958207 -19.997620997315703 0 1 0
794 2 -1 21.77846456817218 17.134906823830963 -0.4127230796974232 0 -1 0
522 2 -1 14.00244118329767 -15.579250123957296 -15.2182429710763 3 2 1
700 2 -1 12.11030364607985 -15.127595100950455 -19.140266873515422 1 1 2
2394 4 1 10.075486408503785 -16.84207252032538 -17.983774828333313 0 1 0
2752 4 1 13.051688755095668 -16.90256506585471 -13.048187979244016 1 1 0
2501 4 1 27.299163469188674 -15.217547125448299 -17.929928942202732 2 0 1
807 2 -1 27.496474753919454 -16.965835460690357 -15.537611302219345 -1 0 0
314 1 3 -4.238286293152851 -12.144037883105582 -15.98570608992411 1 1 0
3040 4 1 -7.001838467321471 -10.011638191763218 -17.770318259565073 1 1 1
1934 3 -2 -5.739338525996924 -13.083438711227231 -16.059663690511176 0 1 0
1630 3 -2 -3.4896498357158565 -11.442359254247403 -17.469082217023516 0 1 0
209 1 3 -3.6450125546041443 -6.932585854613389 -17.37450369155436 0 0 0
2057 3 -2 -3.5265000659506684 -12.677837212813738 -14.378273018160844 0 1 0
382 1 3 -1.8046510553382458 -13.08954180759933 -13.614104941841457 1 1 0
270 1 3 -2.2174521373077685 -10.393233960529129 -18.407096349234937 0 1 0
1342 3 -2 -0.62308280673974 -10.995121435520254 -17.147034764446996 1 1 0
148 1 3 1.2527910330041738 -10.947170313845584 -17.41611511463286 0 0 1
2178 3 -2 -2.4985023259710655 -8.05574828432552 -18.146722661392484 0 0 0
1753 3 -2 1.635779656124976 -8.969908168003217 -17.69577129806807 0 0 0
1790 3 -2 2.664087593158966 -12.111963156362808 -17.629668504184856 1 1 0
137 1 3 2.571892100071512 -7.421633219322782 -17.19115082793832 0 1 0
2792 4 1 4.5345573239499455 -12.327101630867325 -14.441455823278785 -1 1 1
174 1 3 4.254160919499208 -12.72612921413873 -17.911437526993286 -1 1 0
2510 4 1 8.01444848643122 -11.814379225347981 -17.634059842078074 0 1 0
1614 3 -2 5.384208117286931 -11.451609079002107 -17.142483559731453 -1 1 0
410 1 3 5.615400196055347 -9.353280269165458 -16.911835811838248 1 1 0
1918 3 -2 7.660099588797337 -9.244812882496653 -17.192871658860785 1 1 0
1726 3 -2 5.712313743718514 -8.593007268379521 -15.233423650150383 1 1 0
402 1 3 8.537162925125681 -8.848623442820074 -16.038174102220196 0 0 0
195 1 3 5.1298595461496586 -6.765070067470212 -20.053665124300494 0 0 0
1478 3 -2 4.2315832294304485 -8.325638509080786 -17.609311400278006 0 0 0
1471 3 -2 6.765359297253664 -7.7083675223326775 -20.93775359705946 1 1 0
74 1 3 4.683535752803472 -7.43892964507835 -14.173288608550907 0 1 0
2110 3 -2 2.895601980894087 -7.260506625885284 -14.996402743785213 1 1 0
2973 4 1 14.404402314647616 -10.963267885687639 -18.87195460606036 -1 0 0
2286 3 -2 10.33202318104643 -7.9070963314719815 -19.573830998236375 1 1 0
1705 3 -2 13.270431707780258 -8.926099477721829 -18.15145008587293 0 0 0
2226 3 -2 10.354668682266226 -9.09125779165883 -16.54813389623617 1 0 0
510 1 3 11.386315195148743 -8.221089528236206 -17.940677582692423 1 1 0
1701 3 -2 8.64718398328803 -8.236102018127122 -13.93726560472371 0 0 0
3061 4 1 11.626072136408396 -9.061269418289816 -13.474797417040948 1 0 0
1761 3 -2 17.45347943218778 -7.1486849273219235 -17.047204212771703 0 0 0
585 2 -1 25.364375067373448 -13.605597116257375 -16.88049092853696 -1 0 0
2066 3 -2 -7.032960552693889 -1.2932324795962273 -17.18502945994692 1 0 0
46 1 3 -5.481968833363294 -0.8041022465383918 -17.95666649788146 1 1 0
2312 4 1 -9.100849720579582 -2.2574225771243412 -18.388074309950852 -2 -1 0
130 1 3 -4.780035775306723 -4.44937766734046 -19.332398987508007 0 0 0
1782 3 -2 -5.180008270791395 -5.700280252914403 -17.860265092447083 1 0 0
2242 3 -2 -4.816286883906325 -2.2965871199502494 -19.14743736379014 0 0 0
2468 4 1 -7.146457559184566 -4.511086788466551 -15.398358596680778 1 0 1
162 1 3 -4.66352796665196 -1.8873859144365603 -14.865988793347652 1 0 0
1854 3 -2 -4.907430770740652 -3.6529623851092943 -13.938247861527513 1 1 0
569 2 -1 -9.868555627258141 -3.543558656487898 -16.05671927938038 1 0 0
2129 3 -2 -2.140482766574891 -3.8236330803969647 -15.293840380842358 0 0 0
2727 4 1 -0.6733591232573595 -6.706761348077958 -19.144308090250885 0 0 1
1586 3 -2 -2.614715000217428 -4.8643441802875 -18.97835394966985 1 0 0
1405 3 -2 2.2646105195383814 -5.8761298415070815 -18.068774830548993 1 1 0
26 1 3 0.6066375928431391 -2.799415595920795 -19.13257662912446 0 0 0
1493 3 -2 2.4944329298771297 -2.8648038688057866 -18.359262861989063 0 0 0
2174 3 -2 -3.7677916487123797 -1.8401339260625065 -16.38367012450204 1 1 0
2126 3 -2 -0.5368207775099698 -3.0891633608797235 -17.737712234209738 0 1 0
273 1 3 -2.139171165652799 -3.5100921050326974 -17.0322241348859 0 0 0
1443 3 -2 -3.5649683755657664 -6.186968972647698 -15.613124026717532 1 0 0
51 1 3 -3.3602535497151464 -5.112439105855007 -14.239943178721592 1 0 0
2856 4 1 1.7589859926604383 -3.480234429829954 -15.075421207269255 0 0 1
1297 3 -2 4.834541600404515 -5.183793689797223 -19.21844062117447 0 0 0
166 1 3 3.6276908213696633 -4.395740579010335 -18.14277223501715 0 0 0
2029 3 -2 4.73358395588148 -4.151755193258914 -16.409526349933728 1 1 0
114 1 3 5.1203730418909945 -3.839635418803784 -14.467313994810356 1 0 0
1506 3 -2 7.183475188432169 -3.2789724206222637 -14.958581584173688 1 0 0
82 1 3 8.886208236795696 -3.0410569009968533 -14.488405466061412 1 0 0
2276 3 -2 7.022593868952246 -3.232456628013569 -19.85052102362128 0 0 1
2772 4 1 7.531299482735012 -2.5788279630233895 -17.513123793398666 -2 0 1
1786 3 -2 5.004790939932212 -5.438264100218499 -13.113891439997946 1 1 0
2014 3 -2 3.8952559764028045 -2.2567783309564398 -13.634300650811587 0 1 0
2022 3 -2 10.28113627414714 -4.01755919200421 -15.280179778415896 0 0 0
2246 3 -2 13.33269525955113 -4.412666685489864 -15.865707206540245 0 0 0
77 1 3 11.439736387606636 -4.789066553909205 -16.198609495041765 0 1 0
1921 3 -2 15.468974897028748 -3.2600284960129358 -17.523830940821828 -1 0 0
66 1 3 14.521582167713067 -3.3655401408122163 -16.053238194501663 0 0 0
2612 4 1 14.625260276947849 -7.389948816346301 -17.249653598825006 3 0 0
1365 3 -2 11.103695809248144 -6.435907297966271 -17.091452793331012 0 0 0
1666 3 -2 14.204516824327715 -1.4539011223449911 -15.56624504556853 0 0 0
40 1 3 21.420393335632387 -6.978600653447442 -20.24314734847412 0 0 1
2865 4 1 17.586767176445388 -6.144028006322625 -14.173906730806934 -1 0 0
2700 4 1 20.417351879006546 -2.5462461152945757 -17.987871077035475 3 1 0
1842 3 -2 20.0192770181389 -8.013253485044524 -19.24496799328325 1 0 0
418 1 3 18.78546957982037 -6.735973600971608 -18.09222096842803 1 0 0
1793 3 -2 18.009123808370667 -1.8210031289210242 -17.001348671136743 -1 0 0
449 1 3 17.210915527628412 -3.1047653914532134 -18.104290570670706 -1 0 0
1895 3 -2 18.327199344859256 -4.6850434266928485 -18.269179374031715 1 0 0
1600 3 -2 16.936562997235548 -2.9225595407494502 -20.470658024994254 0 1 1
739 2 -1 24.1588344161632 -4.154591564895638 -14.502364196008411 0 0 1
1048 2 -1 28.361453452366664 -3.386087535277758 -18.720118523445958 1 1 0
2518 4 1 28.3307753263954 -3.2117815509368484 -15.748013176352636 0 0 0
1650 3 -2 -5.22128622242671 1.1183505614202254 -17.94456618319478 1 0 0
2842 4 1 -1.8611541927525383 1.2969240920604612 -14.596402621797118 -1 0 0
1745 3 -2 -4.539580297593838 3.942122254004804 -19.443478925476388 0 0 0
406 1 3 -5.060811904848849 4.610716088715858 -14.929879510338443 0 0 0
1458 3 -2 -6.893419128418221 4.976819744492872 -14.167341851859426 1 0 0
1929 3 -2 -4.804921609395907 3.454067330592487 -16.23133268001917 0 0 0
353 1 3 -4.238756760562689 2.6024832898221604 -17.70716063388203 0 0 0
2794 4 1 -9.086674351711267 2.5535023648605346 -18.20349268458154 1 0 -1
1489 3 -2 -5.259640206044043 -0.48179855546177563 -13.960465743494153 0 0 0
2755 4 1 -8.155787942905505 -0.42301276898747275 -14.377409894183582 -1 -1 0
422 1 3 -1.4358995529222103 4.934708478221012 -17.16212035900247 0 0 0
1874 3 -2 -1.9793070294497994 3.1129551492768073 -17.40537195091224 0 0 0
1946 3 -2 0.07172499246964037 5.523801621566076 -18.074242445285446 0 0 0
2416 4 1 1.9607190304377156 1.8978968538419352 -16.585906671337643 -1 1 1
1557 3 -2 -3.645116496900867 5.162284196470992 -13.851811619588311 0 0 0
1913 3 -2 -0.7513163148465303 4.877382601484431 -14.30805338436784 0 0 0
2274 3 -2 0.124447641728894 1.5386206399282898 -14.129871885030454 1 0 0
290 1 3 0.450264431150563 3.514256805307241 -13.77581301623906 1 0 0
1954 3 -2 2.270754016186009 3.6834625159323267 -14.318477042468867 0 0 0
486 1 3 6.224123886304227 1.969645675667131 -17.473013405617376 0 0 0
2230 3 -2 6.1213531174456115 1.5745319838351612 -19.187919582536797 0 0 0
2090 3 -2 7.820921855503084 1.4650802514764365 -16.747172734218235 0 0 0
1809 3 -2 4.691216818417814 2.6454726273708324 -16.738348886877706 0 0 0
1805 3 -2 9.414573173201756 -0.7195316282255746 -15.828866769305785 0 1 0
22 1 3 4.405975133061894 2.9500094271357753 -14.423279889974594 0 0 0
230 1 3 9.438249412771533 0.7937120830806066 -16.404780801584266 0 0 0
2221 3 -2 5.54523913254242 4.14619891137799 -13.292298615808049 1 1 0
2488 4 1 9.341656083860872 4.146368833064649 -13.568567526769225 0 0 1
1986 3 -2 16.669452901854108 0.3116462815481711 -15.068888769079315 0 0 0
1605 3 -2 10.62487593599488 1.1802186440892974 -18.026001337955442 -1 0 0
129 1 3 11.511543926305407 2.545510313285533 -18.827097746959474 -1 0 0
1894 3 -2 13.002045679588033 3.097924531586024 -17.630979088302958 0 0 0
1336 3 -2 10.504915264994683 3.6339498352896094 -19.79658889305684 0 0 1
2366 4 1 12.569115616916086 -0.04802374901282391 -16.7527852046201 -1 1 0
1646 3 -2 10.144560781717615 1.9651307161769012 -14.561376254471739 1 1 0
358 1 3 15.111396367412343 -0.3411059920690285 -14.261314429172138 0 0 0
497 1 3 14.08468372016847 4.497599999433625 -18.27923125039965 0 0 0