Generated by pymatgen.io.lammps.data.LammpsData

3584  atoms

   4  atom types

0.000000 33.135384  xlo xhi
0.000000 33.135384  ylo yhi
0.000000 33.135384  zlo zhi

Masses

1   6.941000
2  54.938045
3  58.693400
4  15.999400

Atoms

1     1  0.5250  0.030932  0.030932  0.030932
2     1  0.5250  0.030932  0.030932  8.314778
3     1  0.5250  0.030932  0.030932 16.598624
4     1  0.5250  0.030932  0.030932 24.882470
5     1  0.5250  0.030932  8.314778  0.030932
6     1  0.5250  0.030932  8.314778  8.314778
7     1  0.5250  0.030932  8.314778 16.598624
8     1  0.5250  0.030932  8.314778 24.882470
9     1  0.5250  0.030932 16.598624  0.030932
10    1  0.5250  0.030932 16.598624  8.314778
11    1  0.5250  0.030932 16.598624 16.598624
12    1  0.5250  0.030932 16.598624 24.882470
13    1  0.5250  0.030932 24.882470  0.030932
14    1  0.5250  0.030932 24.882470  8.314778
15    1  0.5250  0.030932 24.882470 16.598624
16    1  0.5250  0.030932 24.882470 24.882470
17    1  0.5250  8.314778  0.030932  0.030932
18    1  0.5250  8.314778  0.030932  8.314778
19    1  0.5250  8.314778  0.030932 16.598624
20    1  0.5250  8.314778  0.030932 24.882470
21    1  0.5250  8.314778  8.314778  0.030932
22    1  0.5250  8.314778  8.314778  8.314778
23    1  0.5250  8.314778  8.314778 16.598624
24    1  0.5250  8.314778  8.314778 24.882470
25    1  0.5250  8.314778 16.598624  0.030932
26    1  0.5250  8.314778 16.598624  8.314778
27    1  0.5250  8.314778 16.598624 16.598624
28    1  0.5250  8.314778 16.598624 24.882470
29    1  0.5250  8.314778 24.882470  0.030932
30    1  0.5250  8.314778 24.882470  8.314778
31    1  0.5250  8.314778 24.882470 16.598624
32    1  0.5250  8.314778 24.882470 24.882470
33    1  0.5250 16.598624  0.030932  0.030932
34    1  0.5250 16.598624  0.030932  8.314778
35    1  0.5250 16.598624  0.030932 16.598624
36    1  0.5250 16.598624  0.030932 24.882470
37    1  0.5250 16.598624  8.314778  0.030932
38    1  0.5250 16.598624  8.314778  8.314778
39    1  0.5250 16.598624  8.314778 16.598624
40    1  0.5250 16.598624  8.314778 24.882470
41    1  0.5250 16.598624 16.598624  0.030932
42    1  0.5250 16.598624 16.598624  8.314778
43    1  0.5250 16.598624 16.598624 16.598624
44    1  0.5250 16.598624 16.598624 24.882470
45    1  0.5250 16.598624 24.882470  0.030932
46    1  0.5250 16.598624 24.882470  8.314778
47    1  0.5250 16.598624 24.882470 16.598624
48    1  0.5250 16.598624 24.882470 24.882470
49    1  0.5250 24.882470  0.030932  0.030932
50    1  0.5250 24.882470  0.030932  8.314778
51    1  0.5250 24.882470  0.030932 16.598624
52    1  0.5250 24.882470  0.030932 24.882470
53    1  0.5250 24.882470  8.314778  0.030932
54    1  0.5250 24.882470  8.314778  8.314778
55    1  0.5250 24.882470  8.314778 16.598624
56    1  0.5250 24.882470  8.314778 24.882470
57    1  0.5250 24.882470 16.598624  0.030932
58    1  0.5250 24.882470 16.598624  8.314778
59    1  0.5250 24.882470 16.598624 16.598624
60    1  0.5250 24.882470 16.598624 24.882470
61    1  0.5250 24.882470 24.882470  0.030932
62    1  0.5250 24.882470 24.882470  8.314778
63    1  0.5250 24.882470 24.882470 16.598624
64    1  0.5250 24.882470 24.882470 24.882470
65    1  0.5250  2.040030  2.040030  2.040030
66    1  0.5250  2.040030  2.040030 10.323876
67    1  0.5250  2.040030  2.040030 18.607722
68    1  0.5250  2.040030  2.040030 26.891568
69    1  0.5250  2.040030 10.323876  2.040030
70    1  0.5250  2.040030 10.323876 10.323876
71    1  0.5250  2.040030 10.323876 18.607722
72    1  0.5250  2.040030 10.323876 26.891568
73    1  0.5250  2.040030 18.607722  2.040030
74    1  0.5250  2.040030 18.607722 10.323876
75    1  0.5250  2.040030 18.607722 18.607722
76    1  0.5250  2.040030 18.607722 26.891568
77    1  0.5250  2.040030 26.891568  2.040030
78    1  0.5250  2.040030 26.891568 10.323876
79    1  0.5250  2.040030 26.891568 18.607722
80    1  0.5250  2.040030 26.891568 26.891568
81    1  0.5250 10.323876  2.040030  2.040030
82    1  0.5250 10.323876  2.040030 10.323876
83    1  0.5250 10.323876  2.040030 18.607722
84    1  0.5250 10.323876  2.040030 26.891568
85    1  0.5250 10.323876 10.323876  2.040030
86    1  0.5250 10.323876 10.323876 10.323876
87    1  0.5250 10.323876 10.323876 18.607722
88    1  0.5250 10.323876 10.323876 26.891568
89    1  0.5250 10.323876 18.607722  2.040030
90    1  0.5250 10.323876 18.607722 10.323876
91    1  0.5250 10.323876 18.607722 18.607722
92    1  0.5250 10.323876 18.607722 26.891568
93    1  0.5250 10.323876 26.891568  2.040030
94    1  0.5250 10.323876 26.891568 10.323876
95    1  0.5250 10.323876 26.891568 18.607722
96    1  0.5250 10.323876 26.891568 26.891568
97    1  0.5250 18.607722  2.040030  2.040030
98    1  0.5250 18.607722  2.040030 10.323876
99    1  0.5250 18.607722  2.040030 18.607722
100   1  0.5250 18.607722  2.040030 26.891568
101   1  0.5250 18.607722 10.323876  2.040030
102   1  0.5250 18.607722 10.323876 10.323876
103   1  0.5250 18.607722 10.323876 18.607722
104   1  0.5250 18.607722 10.323876 26.891568
105   1  0.5250 18.607722 18.607722  2.040030
106   1  0.5250 18.607722 18.607722 10.323876
107   1  0.5250 18.607722 18.607722 18.607722
108   1  0.5250 18.607722 18.607722 26.891568
109   1  0.5250 18.607722 26.891568  2.040030
110   1  0.5250 18.607722 26.891568 10.323876
111   1  0.5250 18.607722 26.891568 18.607722
112   1  0.5250 18.607722 26.891568 26.891568
113   1  0.5250 26.891568  2.040030  2.040030
114   1  0.5250 26.891568  2.040030 10.323876
115   1  0.5250 26.891568  2.040030 18.607722
116   1  0.5250 26.891568  2.040030 26.891568
117   1  0.5250 26.891568 10.323876  2.040030
118   1  0.5250 26.891568 10.323876 10.323876
119   1  0.5250 26.891568 10.323876 18.607722
120   1  0.5250 26.891568 10.323876 26.891568
121   1  0.5250 26.891568 18.607722  2.040030
122   1  0.5250 26.891568 18.607722 10.323876
123   1  0.5250 26.891568 18.607722 18.607722
124   1  0.5250 26.891568 18.607722 26.891568
125   1  0.5250 26.891568 26.891568  2.040030
126   1  0.5250 26.891568 26.891568 10.323876
127   1  0.5250 26.891568 26.891568 18.607722
128   1  0.5250 26.891568 26.891568 26.891568
129   1  0.5250  2.101893  6.243816  6.181953
130   1  0.5250  2.101893  6.243816 14.465799
131   1  0.5250  2.101893  6.243816 22.749645
132   1  0.5250  2.101893  6.243816 31.033491
133   1  0.5250  2.101893 14.527662  6.181953
134   1  0.5250  2.101893 14.527662 14.465799
135   1  0.5250  2.101893 14.527662 22.749645
136   1  0.5250  2.101893 14.527662 31.033491
137   1  0.5250  2.101893 22.811508  6.181953
138   1  0.5250  2.101893 22.811508 14.465799
139   1  0.5250  2.101893 22.811508 22.749645
140   1  0.5250  2.101893 22.811508 31.033491
141   1  0.5250  2.101893 31.095354  6.181953
142   1  0.5250  2.101893 31.095354 14.465799
143   1  0.5250  2.101893 31.095354 22.749645
144   1  0.5250  2.101893 31.095354 31.033491
145   1  0.5250 10.385739  6.243816  6.181953
146   1  0.5250 10.385739  6.243816 14.465799
147   1  0.5250 10.385739  6.243816 22.749645
148   1  0.5250 10.385739  6.243816 31.033491
149   1  0.5250 10.385739 14.527662  6.181953
150   1  0.5250 10.385739 14.527662 14.465799
151   1  0.5250 10.385739 14.527662 22.749645
152   1  0.5250 10.385739 14.527662 31.033491
153   1  0.5250 10.385739 22.811508  6.181953
154   1  0.5250 10.385739 22.811508 14.465799
155   1  0.5250 10.385739 22.811508 22.749645
156   1  0.5250 10.385739 22.811508 31.033491
157   1  0.5250 10.385739 31.095354  6.181953
158   1  0.5250 10.385739 31.095354 14.465799
159   1  0.5250 10.385739 31.095354 22.749645
160   1  0.5250 10.385739 31.095354 31.033491
161   1  0.5250 18.669585  6.243816  6.181953
162   1  0.5250 18.669585  6.243816 14.465799
163   1  0.5250 18.669585  6.243816 22.749645
164   1  0.5250 18.669585  6.243816 31.033491
165   1  0.5250 18.669585 14.527662  6.181953
166   1  0.5250 18.669585 14.527662 14.465799
167   1  0.5250 18.669585 14.527662 22.749645
168   1  0.5250 18.669585 14.527662 31.033491
169   1  0.5250 18.669585 22.811508  6.181953
170   1  0.5250 18.669585 22.811508 14.465799
171   1  0.5250 18.669585 22.811508 22.749645
172   1  0.5250 18.669585 22.811508 31.033491
173   1  0.5250 18.669585 31.095354  6.181953
174   1  0.5250 18.669585 31.095354 14.465799
175   1  0.5250 18.669585 31.095354 22.749645
176   1  0.5250 18.669585 31.095354 31.033491
177   1  0.5250 26.953431  6.243816  6.181953
178   1  0.5250 26.953431  6.243816 14.465799
179   1  0.5250 26.953431  6.243816 22.749645
180   1  0.5250 26.953431  6.243816 31.033491
181   1  0.5250 26.953431 14.527662  6.181953
182   1  0.5250 26.953431 14.527662 14.465799
183   1  0.5250 26.953431 14.527662 22.749645
184   1  0.5250 26.953431 14.527662 31.033491
185   1  0.5250 26.953431 22.811508  6.181953
186   1  0.5250 26.953431 22.811508 14.465799
187   1  0.5250 26.953431 22.811508 22.749645
188   1  0.5250 26.953431 22.811508 31.033491
189   1  0.5250 26.953431 31.095354  6.181953
190   1  0.5250 26.953431 31.095354 14.465799
191   1  0.5250 26.953431 31.095354 22.749645
192   1  0.5250 26.953431 31.095354 31.033491
193   1  0.5250  4.110991  8.252914  4.172855
194   1  0.5250  4.110991  8.252914 12.456701
195   1  0.5250  4.110991  8.252914 20.740547
196   1  0.5250  4.110991  8.252914 29.024393
197   1  0.5250  4.110991 16.536760  4.172855
198   1  0.5250  4.110991 16.536760 12.456701
199   1  0.5250  4.110991 16.536760 20.740547
200   1  0.5250  4.110991 16.536760 29.024393
201   1  0.5250  4.110991 24.820606  4.172855
202   1  0.5250  4.110991 24.820606 12.456701
203   1  0.5250  4.110991 24.820606 20.740547
204   1  0.5250  4.110991 24.820606 29.024393
205   1  0.5250  4.110991 33.104452  4.172855
206   1  0.5250  4.110991 33.104452 12.456701
207   1  0.5250  4.110991 33.104452 20.740547
208   1  0.5250  4.110991 33.104452 29.024393
209   1  0.5250 12.394837  8.252914  4.172855
210   1  0.5250 12.394837  8.252914 12.456701
211   1  0.5250 12.394837  8.252914 20.740547
212   1  0.5250 12.394837  8.252914 29.024393
213   1  0.5250 12.394837 16.536760  4.172855
214   1  0.5250 12.394837 16.536760 12.456701
215   1  0.5250 12.394837 16.536760 20.740547
216   1  0.5250 12.394837 16.536760 29.024393
217   1  0.5250 12.394837 24.820606  4.172855
218   1  0.5250 12.394837 24.820606 12.456701
219   1  0.5250 12.394837 24.820606 20.740547
220   1  0.5250 12.394837 24.820606 29.024393
221   1  0.5250 12.394837 33.104452  4.172855
222   1  0.5250 12.394837 33.104452 12.456701
223   1  0.5250 12.394837 33.104452 20.740547
224   1  0.5250 12.394837 33.104452 29.024393
225   1  0.5250 20.678683  8.252914  4.172855
226   1  0.5250 20.678683  8.252914 12.456701
227   1  0.5250 20.678683  8.252914 20.740547
228   1  0.5250 20.678683  8.252914 29.024393
229   1  0.5250 20.678683 16.536760  4.172855
230   1  0.5250 20.678683 16.536760 12.456701
231   1  0.5250 20.678683 16.536760 20.740547
232   1  0.5250 20.678683 16.536760 29.024393
233   1  0.5250 20.678683 24.820606  4.172855
234   1  0.5250 20.678683 24.820606 12.456701
235   1  0.5250 20.678683 24.820606 20.740547
236   1  0.5250 20.678683 24.820606 29.024393
237   1  0.5250 20.678683 33.104452  4.172855
238   1  0.5250 20.678683 33.104452 12.456701
239   1  0.5250 20.678683 33.104452 20.740547
240   1  0.5250 20.678683 33.104452 29.024393
241   1  0.5250 28.962529  8.252914  4.172855
242   1  0.5250 28.962529  8.252914 12.456701
243   1  0.5250 28.962529  8.252914 20.740547
244   1  0.5250 28.962529  8.252914 29.024393
245   1  0.5250 28.962529 16.536760  4.172855
246   1  0.5250 28.962529 16.536760 12.456701
247   1  0.5250 28.962529 16.536760 20.740547
248   1  0.5250 28.962529 16.536760 29.024393
249   1  0.5250 28.962529 24.820606  4.172855
250   1  0.5250 28.962529 24.820606 12.456701
251   1  0.5250 28.962529 24.820606 20.740547
252   1  0.5250 28.962529 24.820606 29.024393
253   1  0.5250 28.962529 33.104452  4.172855
254   1  0.5250 28.962529 33.104452 12.456701
255   1  0.5250 28.962529 33.104452 20.740547
256   1  0.5250 28.962529 33.104452 29.024393
257   1  0.5250  4.172855  4.110991  8.252914
258   1  0.5250  4.172855  4.110991 16.536760
259   1  0.5250  4.172855  4.110991 24.820606
260   1  0.5250  4.172855  4.110991 33.104452
261   1  0.5250  4.172855 12.394837  8.252914
262   1  0.5250  4.172855 12.394837 16.536760
263   1  0.5250  4.172855 12.394837 24.820606
264   1  0.5250  4.172855 12.394837 33.104452
265   1  0.5250  4.172855 20.678683  8.252914
266   1  0.5250  4.172855 20.678683 16.536760
267   1  0.5250  4.172855 20.678683 24.820606
268   1  0.5250  4.172855 20.678683 33.104452
269   1  0.5250  4.172855 28.962529  8.252914
270   1  0.5250  4.172855 28.962529 16.536760
271   1  0.5250  4.172855 28.962529 24.820606
272   1  0.5250  4.172855 28.962529 33.104452
273   1  0.5250 12.456701  4.110991  8.252914
274   1  0.5250 12.456701  4.110991 16.536760
275   1  0.5250 12.456701  4.110991 24.820606
276   1  0.5250 12.456701  4.110991 33.104452
277   1  0.5250 12.456701 12.394837  8.252914
278   1  0.5250 12.456701 12.394837 16.536760
279   1  0.5250 12.456701 12.394837 24.820606
280   1  0.5250 12.456701 12.394837 33.104452
281   1  0.5250 12.456701 20.678683  8.252914
282   1  0.5250 12.456701 20.678683 16.536760
283   1  0.5250 12.456701 20.678683 24.820606
284   1  0.5250 12.456701 20.678683 33.104452
285   1  0.5250 12.456701 28.962529  8.252914
286   1  0.5250 12.456701 28.962529 16.536760
287   1  0.5250 12.456701 28.962529 24.820606
288   1  0.5250 12.456701 28.962529 33.104452
289   1  0.5250 20.740547  4.110991  8.252914
290   1  0.5250 20.740547  4.110991 16.536760
291   1  0.5250 20.740547  4.110991 24.820606
292   1  0.5250 20.740547  4.110991 33.104452
293   1  0.5250 20.740547 12.394837  8.252914
294   1  0.5250 20.740547 12.394837 16.536760
295   1  0.5250 20.740547 12.394837 24.820606
296   1  0.5250 20.740547 12.394837 33.104452
297   1  0.5250 20.740547 20.678683  8.252914
298   1  0.5250 20.740547 20.678683 16.536760
299   1  0.5250 20.740547 20.678683 24.820606
300   1  0.5250 20.740547 20.678683 33.104452
301   1  0.5250 20.740547 28.962529  8.252914
302   1  0.5250 20.740547 28.962529 16.536760
303   1  0.5250 20.740547 28.962529 24.820606
304   1  0.5250 20.740547 28.962529 33.104452
305   1  0.5250 29.024393  4.110991  8.252914
306   1  0.5250 29.024393  4.110991 16.536760
307   1  0.5250 29.024393  4.110991 24.820606
308   1  0.5250 29.024393  4.110991 33.104452
309   1  0.5250 29.024393 12.394837  8.252914
310   1  0.5250 29.024393 12.394837 16.536760
311   1  0.5250 29.024393 12.394837 24.820606
312   1  0.5250 29.024393 12.394837 33.104452
313   1  0.5250 29.024393 20.678683  8.252914
314   1  0.5250 29.024393 20.678683 16.536760
315   1  0.5250 29.024393 20.678683 24.820606
316   1  0.5250 29.024393 20.678683 33.104452
317   1  0.5250 29.024393 28.962529  8.252914
318   1  0.5250 29.024393 28.962529 16.536760
319   1  0.5250 29.024393 28.962529 24.820606
320   1  0.5250 29.024393 28.962529 33.104452
321   1  0.5250  6.181953  2.101893  6.243816
322   1  0.5250  6.181953  2.101893 14.527662
323   1  0.5250  6.181953  2.101893 22.811508
324   1  0.5250  6.181953  2.101893 31.095354
325   1  0.5250  6.181953 10.385739  6.243816
326   1  0.5250  6.181953 10.385739 14.527662
327   1  0.5250  6.181953 10.385739 22.811508
328   1  0.5250  6.181953 10.385739 31.095354
329   1  0.5250  6.181953 18.669585  6.243816
330   1  0.5250  6.181953 18.669585 14.527662
331   1  0.5250  6.181953 18.669585 22.811508
332   1  0.5250  6.181953 18.669585 31.095354
333   1  0.5250  6.181953 26.953431  6.243816
334   1  0.5250  6.181953 26.953431 14.527662
335   1  0.5250  6.181953 26.953431 22.811508
336   1  0.5250  6.181953 26.953431 31.095354
337   1  0.5250 14.465799  2.101893  6.243816
338   1  0.5250 14.465799  2.101893 14.527662
339   1  0.5250 14.465799  2.101893 22.811508
340   1  0.5250 14.465799  2.101893 31.095354
341   1  0.5250 14.465799 10.385739  6.243816
342   1  0.5250 14.465799 10.385739 14.527662
343   1  0.5250 14.465799 10.385739 22.811508
344   1  0.5250 14.465799 10.385739 31.095354
345   1  0.5250 14.465799 18.669585  6.243816
346   1  0.5250 14.465799 18.669585 14.527662
347   1  0.5250 14.465799 18.669585 22.811508
348   1  0.5250 14.465799 18.669585 31.095354
349   1  0.5250 14.465799 26.953431  6.243816
350   1  0.5250 14.465799 26.953431 14.527662
351   1  0.5250 14.465799 26.953431 22.811508
352   1  0.5250 14.465799 26.953431 31.095354
353   1  0.5250 22.749645  2.101893  6.243816
354   1  0.5250 22.749645  2.101893 14.527662
355   1  0.5250 22.749645  2.101893 22.811508
356   1  0.5250 22.749645  2.101893 31.095354
357   1  0.5250 22.749645 10.385739  6.243816
358   1  0.5250 22.749645 10.385739 14.527662
359   1  0.5250 22.749645 10.385739 22.811508
360   1  0.5250 22.749645 10.385739 31.095354
361   1  0.5250 22.749645 18.669585  6.243816
362   1  0.5250 22.749645 18.669585 14.527662
363   1  0.5250 22.749645 18.669585 22.811508
364   1  0.5250 22.749645 18.669585 31.095354
365   1  0.5250 22.749645 26.953431  6.243816
366   1  0.5250 22.749645 26.953431 14.527662
367   1  0.5250 22.749645 26.953431 22.811508
368   1  0.5250 22.749645 26.953431 31.095354
369   1  0.5250 31.033491  2.101893  6.243816
370   1  0.5250 31.033491  2.101893 14.527662
371   1  0.5250 31.033491  2.101893 22.811508
372   1  0.5250 31.033491  2.101893 31.095354
373   1  0.5250 31.033491 10.385739  6.243816
374   1  0.5250 31.033491 10.385739 14.527662
375   1  0.5250 31.033491 10.385739 22.811508
376   1  0.5250 31.033491 10.385739 31.095354
377   1  0.5250 31.033491 18.669585  6.243816
378   1  0.5250 31.033491 18.669585 14.527662
379   1  0.5250 31.033491 18.669585 22.811508
380   1  0.5250 31.033491 18.669585 31.095354
381   1  0.5250 31.033491 26.953431  6.243816
382   1  0.5250 31.033491 26.953431 14.527662
383   1  0.5250 31.033491 26.953431 22.811508
384   1  0.5250 31.033491 26.953431 31.095354
385   1  0.5250  6.243816  6.181953  2.101893
386   1  0.5250  6.243816  6.181953 10.385739
387   1  0.5250  6.243816  6.181953 18.669585
388   1  0.5250  6.243816  6.181953 26.953431
389   1  0.5250  6.243816 14.465799  2.101893
390   1  0.5250  6.243816 14.465799 10.385739
391   1  0.5250  6.243816 14.465799 18.669585
392   1  0.5250  6.243816 14.465799 26.953431
393   1  0.5250  6.243816 22.749645  2.101893
394   1  0.5250  6.243816 22.749645 10.385739
395   1  0.5250  6.243816 22.749645 18.669585
396   1  0.5250  6.243816 22.749645 26.953431
397   1  0.5250  6.243816 31.033491  2.101893
398   1  0.5250  6.243816 31.033491 10.385739
399   1  0.5250  6.243816 31.033491 18.669585
400   1  0.5250  6.243816 31.033491 26.953431
401   1  0.5250 14.527662  6.181953  2.101893
402   1  0.5250 14.527662  6.181953 10.385739
403   1  0.5250 14.527662  6.181953 18.669585
404   1  0.5250 14.527662  6.181953 26.953431
405   1  0.5250 14.527662 14.465799  2.101893
406   1  0.5250 14.527662 14.465799 10.385739
407   1  0.5250 14.527662 14.465799 18.669585
408   1  0.5250 14.527662 14.465799 26.953431
409   1  0.5250 14.527662 22.749645  2.101893
410   1  0.5250 14.527662 22.749645 10.385739
411   1  0.5250 14.527662 22.749645 18.669585
412   1  0.5250 14.527662 22.749645 26.953431
413   1  0.5250 14.527662 31.033491  2.101893
414   1  0.5250 14.527662 31.033491 10.385739
415   1  0.5250 14.527662 31.033491 18.669585
416   1  0.5250 14.527662 31.033491 26.953431
417   1  0.5250 22.811508  6.181953  2.101893
418   1  0.5250 22.811508  6.181953 10.385739
419   1  0.5250 22.811508  6.181953 18.669585
420   1  0.5250 22.811508  6.181953 26.953431
421   1  0.5250 22.811508 14.465799  2.101893
422   1  0.5250 22.811508 14.465799 10.385739
423   1  0.5250 22.811508 14.465799 18.669585
424   1  0.5250 22.811508 14.465799 26.953431
425   1  0.5250 22.811508 22.749645  2.101893
426   1  0.5250 22.811508 22.749645 10.385739
427   1  0.5250 22.811508 22.749645 18.669585
428   1  0.5250 22.811508 22.749645 26.953431
429   1  0.5250 22.811508 31.033491  2.101893
430   1  0.5250 22.811508 31.033491 10.385739
431   1  0.5250 22.811508 31.033491 18.669585
432   1  0.5250 22.811508 31.033491 26.953431
433   1  0.5250 31.095354  6.181953  2.101893
434   1  0.5250 31.095354  6.181953 10.385739
435   1  0.5250 31.095354  6.181953 18.669585
436   1  0.5250 31.095354  6.181953 26.953431
437   1  0.5250 31.095354 14.465799  2.101893
438   1  0.5250 31.095354 14.465799 10.385739
439   1  0.5250 31.095354 14.465799 18.669585
440   1  0.5250 31.095354 14.465799 26.953431
441   1  0.5250 31.095354 22.749645  2.101893
442   1  0.5250 31.095354 22.749645 10.385739
443   1  0.5250 31.095354 22.749645 18.669585
444   1  0.5250 31.095354 22.749645 26.953431
445   1  0.5250 31.095354 31.033491  2.101893
446   1  0.5250 31.095354 31.033491 10.385739
447   1  0.5250 31.095354 31.033491 18.669585
448   1  0.5250 31.095354 31.033491 26.953431
449   1  0.5250  8.252914  4.172855  4.110991
450   1  0.5250  8.252914  4.172855 12.394837
451   1  0.5250  8.252914  4.172855 20.678683
452   1  0.5250  8.252914  4.172855 28.962529
453   1  0.5250  8.252914 12.456701  4.110991
454   1  0.5250  8.252914 12.456701 12.394837
455   1  0.5250  8.252914 12.456701 20.678683
456   1  0.5250  8.252914 12.456701 28.962529
457   1  0.5250  8.252914 20.740547  4.110991
458   1  0.5250  8.252914 20.740547 12.394837
459   1  0.5250  8.252914 20.740547 20.678683
460   1  0.5250  8.252914 20.740547 28.962529
461   1  0.5250  8.252914 29.024393  4.110991
462   1  0.5250  8.252914 29.024393 12.394837
463   1  0.5250  8.252914 29.024393 20.678683
464   1  0.5250  8.252914 29.024393 28.962529
465   1  0.5250 16.536760  4.172855  4.110991
466   1  0.5250 16.536760  4.172855 12.394837
467   1  0.5250 16.536760  4.172855 20.678683
468   1  0.5250 16.536760  4.172855 28.962529
469   1  0.5250 16.536760 12.456701  4.110991
470   1  0.5250 16.536760 12.456701 12.394837
471   1  0.5250 16.536760 12.456701 20.678683
472   1  0.5250 16.536760 12.456701 28.962529
473   1  0.5250 16.536760 20.740547  4.110991
474   1  0.5250 16.536760 20.740547 12.394837
475   1  0.5250 16.536760 20.740547 20.678683
476   1  0.5250 16.536760 20.740547 28.962529
477   1  0.5250 16.536760 29.024393  4.110991
478   1  0.5250 16.536760 29.024393 12.394837
479   1  0.5250 16.536760 29.024393 20.678683
480   1  0.5250 16.536760 29.024393 28.962529
481   1  0.5250 24.820606  4.172855  4.110991
482   1  0.5250 24.820606  4.172855 12.394837
483   1  0.5250 24.820606  4.172855 20.678683
484   1  0.5250 24.820606  4.172855 28.962529
485   1  0.5250 24.820606 12.456701  4.110991
486   1  0.5250 24.820606 12.456701 12.394837
487   1  0.5250 24.820606 12.456701 20.678683
488   1  0.5250 24.820606 12.456701 28.962529
489   1  0.5250 24.820606 20.740547  4.110991
490   1  0.5250 24.820606 20.740547 12.394837
491   1  0.5250 24.820606 20.740547 20.678683
492   1  0.5250 24.820606 20.740547 28.962529
493   1  0.5250 24.820606 29.024393  4.110991
494   1  0.5250 24.820606 29.024393 12.394837
495   1  0.5250 24.820606 29.024393 20.678683
496   1  0.5250 24.820606 29.024393 28.962529
497   1  0.5250 33.104452  4.172855  4.110991
498   1  0.5250 33.104452  4.172855 12.394837
499   1  0.5250 33.104452  4.172855 20.678683
500   1  0.5250 33.104452  4.172855 28.962529
501   1  0.5250 33.104452 12.456701  4.110991
502   1  0.5250 33.104452 12.456701 12.394837
503   1  0.5250 33.104452 12.456701 20.678683
504   1  0.5250 33.104452 12.456701 28.962529
505   1  0.5250 33.104452 20.740547  4.110991
506   1  0.5250 33.104452 20.740547 12.394837
507   1  0.5250 33.104452 20.740547 20.678683
508   1  0.5250 33.104452 20.740547 28.962529
509   1  0.5250 33.104452 29.024393  4.110991
510   1  0.5250 33.104452 29.024393 12.394837
511   1  0.5250 33.104452 29.024393 20.678683
512   1  0.5250 33.104452 29.024393 28.962529
513   2  1.3600  1.003836  1.067125  5.177404
514   2  1.3600  1.003836  1.067125 13.461250
515   2  1.3600  1.003836  1.067125 21.745096
516   2  1.3600  1.003836  1.067125 30.028942
517   2  1.3600  1.003836  9.350971  5.177404
518   2  1.3600  1.003836  9.350971 13.461250
519   2  1.3600  1.003836  9.350971 21.745096
520   2  1.3600  1.003836  9.350971 30.028942
521   2  1.3600  1.003836 17.634817  5.177404
522   2  1.3600  1.003836 17.634817 13.461250
523   2  1.3600  1.003836 17.634817 21.745096
524   2  1.3600  1.003836 17.634817 30.028942
525   2  1.3600  1.003836 25.918663  5.177404
526   2  1.3600  1.003836 25.918663 13.461250
527   2  1.3600  1.003836 25.918663 21.745096
528   2  1.3600  1.003836 25.918663 30.028942
529   2  1.3600  9.287682  1.067125  5.177404
530   2  1.3600  9.287682  1.067125 13.461250
531   2  1.3600  9.287682  1.067125 21.745096
532   2  1.3600  9.287682  1.067125 30.028942
533   2  1.3600  9.287682  9.350971  5.177404
534   2  1.3600  9.287682  9.350971 13.461250
535   2  1.3600  9.287682  9.350971 21.745096
536   2  1.3600  9.287682  9.350971 30.028942
537   2  1.3600  9.287682 17.634817  5.177404
538   2  1.3600  9.287682 17.634817 13.461250
539   2  1.3600  9.287682 17.634817 21.745096
540   2  1.3600  9.287682 17.634817 30.028942
541   2  1.3600  9.287682 25.918663  5.177404
542   2  1.3600  9.287682 25.918663 13.461250
543   2  1.3600  9.287682 25.918663 21.745096
544   2  1.3600  9.287682 25.918663 30.028942
545   2  1.3600 17.571528  1.067125  5.177404
546   2  1.3600 17.571528  1.067125 13.461250
547   2  1.3600 17.571528  1.067125 21.745096
548   2  1.3600 17.571528  1.067125 30.028942
549   2  1.3600 17.571528  9.350971  5.177404
550   2  1.3600 17.571528  9.350971 13.461250
551   2  1.3600 17.571528  9.350971 21.745096
552   2  1.3600 17.571528  9.350971 30.028942
553   2  1.3600 17.571528 17.634817  5.177404
554   2  1.3600 17.571528 17.634817 13.461250
555   2  1.3600 17.571528 17.634817 21.745096
556   2  1.3600 17.571528 17.634817 30.028942
557   2  1.3600 17.571528 25.918663  5.177404
558   2  1.3600 17.571528 25.918663 13.461250
559   2  1.3600 17.571528 25.918663 21.745096
560   2  1.3600 17.571528 25.918663 30.028942
561   2  1.3600 25.855374  1.067125  5.177404
562   2  1.3600 25.855374  1.067125 13.461250
563   2  1.3600 25.855374  1.067125 21.745096
564   2  1.3600 25.855374  1.067125 30.028942
565   2  1.3600 25.855374  9.350971  5.177404
566   2  1.3600 25.855374  9.350971 13.461250
567   2  1.3600 25.855374  9.350971 21.745096
568   2  1.3600 25.855374  9.350971 30.028942
569   2  1.3600 25.855374 17.634817  5.177404
570   2  1.3600 25.855374 17.634817 13.461250
571   2  1.3600 25.855374 17.634817 21.745096
572   2  1.3600 25.855374 17.634817 30.028942
573   2  1.3600 25.855374 25.918663  5.177404
574   2  1.3600 25.855374 25.918663 13.461250
575   2  1.3600 25.855374 25.918663 21.745096
576   2  1.3600 25.855374 25.918663 30.028942
577   2  1.3600  1.035481  3.138087  7.216721
578   2  1.3600  1.035481  3.138087 15.500567
579   2  1.3600  1.035481  3.138087 23.784413
580   2  1.3600  1.035481  3.138087 32.068259
581   2  1.3600  1.035481 11.421933  7.216721
582   2  1.3600  1.035481 11.421933 15.500567
583   2  1.3600  1.035481 11.421933 23.784413
584   2  1.3600  1.035481 11.421933 32.068259
585   2  1.3600  1.035481 19.705779  7.216721
586   2  1.3600  1.035481 19.705779 15.500567
587   2  1.3600  1.035481 19.705779 23.784413
588   2  1.3600  1.035481 19.705779 32.068259
589   2  1.3600  1.035481 27.989625  7.216721
590   2  1.3600  1.035481 27.989625 15.500567
591   2  1.3600  1.035481 27.989625 23.784413
592   2  1.3600  1.035481 27.989625 32.068259
593   2  1.3600  9.319327  3.138087  7.216721
594   2  1.3600  9.319327  3.138087 15.500567
595   2  1.3600  9.319327  3.138087 23.784413
596   2  1.3600  9.319327  3.138087 32.068259
597   2  1.3600  9.319327 11.421933  7.216721
598   2  1.3600  9.319327 11.421933 15.500567
599   2  1.3600  9.319327 11.421933 23.784413
600   2  1.3600  9.319327 11.421933 32.068259
601   2  1.3600  9.319327 19.705779  7.216721
602   2  1.3600  9.319327 19.705779 15.500567
603   2  1.3600  9.319327 19.705779 23.784413
604   2  1.3600  9.319327 19.705779 32.068259
605   2  1.3600  9.319327 27.989625  7.216721
606   2  1.3600  9.319327 27.989625 15.500567
607   2  1.3600  9.319327 27.989625 23.784413
608   2  1.3600  9.319327 27.989625 32.068259
609   2  1.3600 17.603173  3.138087  7.216721
610   2  1.3600 17.603173  3.138087 15.500567
611   2  1.3600 17.603173  3.138087 23.784413
612   2  1.3600 17.603173  3.138087 32.068259
613   2  1.3600 17.603173 11.421933  7.216721
614   2  1.3600 17.603173 11.421933 15.500567
615   2  1.3600 17.603173 11.421933 23.784413
616   2  1.3600 17.603173 11.421933 32.068259
617   2  1.3600 17.603173 19.705779  7.216721
618   2  1.3600 17.603173 19.705779 15.500567
619   2  1.3600 17.603173 19.705779 23.784413
620   2  1.3600 17.603173 19.705779 32.068259
621   2  1.3600 17.603173 27.989625  7.216721
622   2  1.3600 17.603173 27.989625 15.500567
623   2  1.3600 17.603173 27.989625 23.784413
624   2  1.3600 17.603173 27.989625 32.068259
625   2  1.3600 25.887019  3.138087  7.216721
626   2  1.3600 25.887019  3.138087 15.500567
627   2  1.3600 25.887019  3.138087 23.784413
628   2  1.3600 25.887019  3.138087 32.068259
629   2  1.3600 25.887019 11.421933  7.216721
630   2  1.3600 25.887019 11.421933 15.500567
631   2  1.3600 25.887019 11.421933 23.784413
632   2  1.3600 25.887019 11.421933 32.068259
633   2  1.3600 25.887019 19.705779  7.216721
634   2  1.3600 25.887019 19.705779 15.500567
635   2  1.3600 25.887019 19.705779 23.784413
636   2  1.3600 25.887019 19.705779 32.068259
637   2  1.3600 25.887019 27.989625  7.216721
638   2  1.3600 25.887019 27.989625 15.500567
639   2  1.3600 25.887019 27.989625 23.784413
640   2  1.3600 25.887019 27.989625 32.068259
641   2  1.3600  1.067125  5.177404  1.003836
642   2  1.3600  1.067125  5.177404  9.287682
643   2  1.3600  1.067125  5.177404 17.571528
644   2  1.3600  1.067125  5.177404 25.855374
645   2  1.3600  1.067125 13.461250  1.003836
646   2  1.3600  1.067125 13.461250  9.287682
647   2  1.3600  1.067125 13.461250 17.571528