Generated by pymatgen.io.lammps.data.LammpsData

3500  atoms

   4  atom types

0.000000 30.031839  xlo xhi
0.000000 26.008336  ylo yhi
0.000000 48.894490  zlo zhi
-15.015918 0.000000 0.000000  xy xz yz

Masses

1    6.9410
2   55.8450
3  121.7600
4   15.9994

Atoms

1     1 0.0000  -0.000003  3.467780  8.828819
2     1 0.0000  -0.000003  3.467780 18.607717
3     1 0.0000  -0.000003  3.467780 28.386615
4     1 0.0000  -0.000003  3.467780 38.165513
5     1 0.0000  -0.000003  3.467780 47.944411
6     1 0.0000  -3.003186  8.669447  8.828819
7     1 0.0000  -3.003186  8.669447 18.607717
8     1 0.0000  -3.003186  8.669447 28.386615
9     1 0.0000  -3.003186  8.669447 38.165513
10    1 0.0000  -3.003186  8.669447 47.944411
11    1 0.0000  -6.006370 13.871114  8.828819
12    1 0.0000  -6.006370 13.871114 18.607717
13    1 0.0000  -6.006370 13.871114 28.386615
14    1 0.0000  -6.006370 13.871114 38.165513
15    1 0.0000  -6.006370 13.871114 47.944411
16    1 0.0000  -9.009554 19.072781  8.828819
17    1 0.0000  -9.009554 19.072781 18.607717
18    1 0.0000  -9.009554 19.072781 28.386615
19    1 0.0000  -9.009554 19.072781 38.165513
20    1 0.0000  -9.009554 19.072781 47.944411
21    1 0.0000 -12.012737 24.274449  8.828819
22    1 0.0000 -12.012737 24.274449 18.607717
23    1 0.0000 -12.012737 24.274449 28.386615
24    1 0.0000 -12.012737 24.274449 38.165513
25    1 0.0000 -12.012737 24.274449 47.944411
26    1 0.0000   6.006365  3.467780  8.828819
27    1 0.0000   6.006365  3.467780 18.607717
28    1 0.0000   6.006365  3.467780 28.386615
29    1 0.0000   6.006365  3.467780 38.165513
30    1 0.0000   6.006365  3.467780 47.944411
31    1 0.0000   3.003181  8.669447  8.828819
32    1 0.0000   3.003181  8.669447 18.607717
33    1 0.0000   3.003181  8.669447 28.386615
34    1 0.0000   3.003181  8.669447 38.165513
35    1 0.0000   3.003181  8.669447 47.944411
36    1 0.0000  -0.000002 13.871114  8.828819
37    1 0.0000  -0.000002 13.871114 18.607717
38    1 0.0000  -0.000002 13.871114 28.386615
39    1 0.0000  -0.000002 13.871114 38.165513
40    1 0.0000  -0.000002 13.871114 47.944411
41    1 0.0000  -3.003186 19.072781  8.828819
42    1 0.0000  -3.003186 19.072781 18.607717
43    1 0.0000  -3.003186 19.072781 28.386615
44    1 0.0000  -3.003186 19.072781 38.165513
45    1 0.0000  -3.003186 19.072781 47.944411
46    1 0.0000  -6.006370 24.274449  8.828819
47    1 0.0000  -6.006370 24.274449 18.607717
48    1 0.0000  -6.006370 24.274449 28.386615
49    1 0.0000  -6.006370 24.274449 38.165513
50    1 0.0000  -6.006370 24.274449 47.944411
51    1 0.0000  12.012733  3.467780  8.828819
52    1 0.0000  12.012733  3.467780 18.607717
53    1 0.0000  12.012733  3.467780 28.386615
54    1 0.0000  12.012733  3.467780 38.165513
55    1 0.0000  12.012733  3.467780 47.944411
56    1 0.0000   9.009549  8.669447  8.828819
57    1 0.0000   9.009549  8.669447 18.607717
58    1 0.0000   9.009549  8.669447 28.386615
59    1 0.0000   9.009549  8.669447 38.165513
60    1 0.0000   9.009549  8.669447 47.944411
61    1 0.0000   6.006365 13.871114  8.828819
62    1 0.0000   6.006365 13.871114 18.607717
63    1 0.0000   6.006365 13.871114 28.386615
64    1 0.0000   6.006365 13.871114 38.165513
65    1 0.0000   6.006365 13.871114 47.944411
66    1 0.0000   3.003182 19.072781  8.828819
67    1 0.0000   3.003182 19.072781 18.607717
68    1 0.0000   3.003182 19.072781 28.386615
69    1 0.0000   3.003182 19.072781 38.165513
70    1 0.0000   3.003182 19.072781 47.944411
71    1 0.0000  -0.000002 24.274449  8.828819
72    1 0.0000  -0.000002 24.274449 18.607717
73    1 0.0000  -0.000002 24.274449 28.386615
74    1 0.0000  -0.000002 24.274449 38.165513
75    1 0.0000  -0.000002 24.274449 47.944411
76    1 0.0000  18.019100  3.467780  8.828819
77    1 0.0000  18.019100  3.467780 18.607717
78    1 0.0000  18.019100  3.467780 28.386615
79    1 0.0000  18.019100  3.467780 38.165513
80    1 0.0000  18.019100  3.467780 47.944411
81    1 0.0000  15.015917  8.669447  8.828819
82    1 0.0000  15.015917  8.669447 18.607717
83    1 0.0000  15.015917  8.669447 28.386615
84    1 0.0000  15.015917  8.669447 38.165513
85    1 0.0000  15.015917  8.669447 47.944411
86    1 0.0000  12.012733 13.871114  8.828819
87    1 0.0000  12.012733 13.871114 18.607717
88    1 0.0000  12.012733 13.871114 28.386615
89    1 0.0000  12.012733 13.871114 38.165513
90    1 0.0000  12.012733 13.871114 47.944411
91    1 0.0000   9.009550 19.072781  8.828819
92    1 0.0000   9.009550 19.072781 18.607717
93    1 0.0000   9.009550 19.072781 28.386615
94    1 0.0000   9.009550 19.072781 38.165513
95    1 0.0000   9.009550 19.072781 47.944411
96    1 0.0000   6.006366 24.274449  8.828819
97    1 0.0000   6.006366 24.274449 18.607717
98    1 0.0000   6.006366 24.274449 28.386615
99    1 0.0000   6.006366 24.274449 38.165513
100   1 0.0000   6.006366 24.274449 47.944411
101   1 0.0000  24.025468  3.467780  8.828819
102   1 0.0000  24.025468  3.467780 18.607717
103   1 0.0000  24.025468  3.467780 28.386615
104   1 0.0000  24.025468  3.467780 38.165513
105   1 0.0000  24.025468  3.467780 47.944411
106   1 0.0000  21.022285  8.669447  8.828819
107   1 0.0000  21.022285  8.669447 18.607717
108   1 0.0000  21.022285  8.669447 28.386615
109   1 0.0000  21.022285  8.669447 38.165513
110   1 0.0000  21.022285  8.669447 47.944411
111   1 0.0000  18.019101 13.871114  8.828819
112   1 0.0000  18.019101 13.871114 18.607717
113   1 0.0000  18.019101 13.871114 28.386615
114   1 0.0000  18.019101 13.871114 38.165513
115   1 0.0000  18.019101 13.871114 47.944411
116   1 0.0000  15.015917 19.072781  8.828819
117   1 0.0000  15.015917 19.072781 18.607717
118   1 0.0000  15.015917 19.072781 28.386615
119   1 0.0000  15.015917 19.072781 38.165513
120   1 0.0000  15.015917 19.072781 47.944411
121   1 0.0000  12.012734 24.274449  8.828819
122   1 0.0000  12.012734 24.274449 18.607717
123   1 0.0000  12.012734 24.274449 28.386615
124   1 0.0000  12.012734 24.274449 38.165513
125   1 0.0000  12.012734 24.274449 47.944411
126   1 0.0000   0.000000  0.000000  9.667438
127   1 0.0000   0.000000  0.000000 19.446336
128   1 0.0000   0.000000  0.000000 29.225234
129   1 0.0000   0.000000  0.000000 39.004132
130   1 0.0000   0.000000  0.000000 48.783030
131   1 0.0000  -3.003184  5.201667  9.667438
132   1 0.0000  -3.003184  5.201667 19.446336
133   1 0.0000  -3.003184  5.201667 29.225234
134   1 0.0000  -3.003184  5.201667 39.004132
135   1 0.0000  -3.003184  5.201667 48.783030
136   1 0.0000  -6.006367 10.403334  9.667438
137   1 0.0000  -6.006367 10.403334 19.446336
138   1 0.0000  -6.006367 10.403334 29.225234
139   1 0.0000  -6.006367 10.403334 39.004132
140   1 0.0000  -6.006367 10.403334 48.783030
141   1 0.0000  -9.009551 15.605002  9.667438
142   1 0.0000  -9.009551 15.605002 19.446336
143   1 0.0000  -9.009551 15.605002 29.225234
144   1 0.0000  -9.009551 15.605002 39.004132
145   1 0.0000  -9.009551 15.605002 48.783030
146   1 0.0000 -12.012735 20.806669  9.667438
147   1 0.0000 -12.012735 20.806669 19.446336
148   1 0.0000 -12.012735 20.806669 29.225234
149   1 0.0000 -12.012735 20.806669 39.004132
150   1 0.0000 -12.012735 20.806669 48.783030
151   1 0.0000   6.006368 -0.000000  9.667438
152   1 0.0000   6.006368 -0.000000 19.446336
153   1 0.0000   6.006368 -0.000000 29.225234
154   1 0.0000   6.006368 -0.000000 39.004132
155   1 0.0000   6.006368 -0.000000 48.783030
156   1 0.0000   3.003184  5.201667  9.667438
157   1 0.0000   3.003184  5.201667 19.446336
158   1 0.0000   3.003184  5.201667 29.225234
159   1 0.0000   3.003184  5.201667 39.004132
160   1 0.0000   3.003184  5.201667 48.783030
161   1 0.0000   0.000000 10.403334  9.667438
162   1 0.0000   0.000000 10.403334 19.446336
163   1 0.0000   0.000000 10.403334 29.225234
164   1 0.0000   0.000000 10.403334 39.004132
165   1 0.0000   0.000000 10.403334 48.783030
166   1 0.0000  -3.003183 15.605002  9.667438
167   1 0.0000  -3.003183 15.605002 19.446336
168   1 0.0000  -3.003183 15.605002 29.225234
169   1 0.0000  -3.003183 15.605002 39.004132
170   1 0.0000  -3.003183 15.605002 48.783030
171   1 0.0000  -6.006367 20.806669  9.667438
172   1 0.0000  -6.006367 20.806669 19.446336
173   1 0.0000  -6.006367 20.806669 29.225234
174   1 0.0000  -6.006367 20.806669 39.004132
175   1 0.0000  -6.006367 20.806669 48.783030
176   1 0.0000  12.012736 -0.000000  9.667438
177   1 0.0000  12.012736 -0.000000 19.446336
178   1 0.0000  12.012736 -0.000000 29.225234
179   1 0.0000  12.012736 -0.000000 39.004132
180   1 0.0000  12.012736 -0.000000 48.783030
181   1 0.0000   9.009552  5.201667  9.667438
182   1 0.0000   9.009552  5.201667 19.446336
183   1 0.0000   9.009552  5.201667 29.225234
184   1 0.0000   9.009552  5.201667 39.004132
185   1 0.0000   9.009552  5.201667 48.783030
186   1 0.0000   6.006368 10.403334  9.667438
187   1 0.0000   6.006368 10.403334 19.446336
188   1 0.0000   6.006368 10.403334 29.225234
189   1 0.0000   6.006368 10.403334 39.004132
190   1 0.0000   6.006368 10.403334 48.783030
191   1 0.0000   3.003185 15.605002  9.667438
192   1 0.0000   3.003185 15.605002 19.446336
193   1 0.0000   3.003185 15.605002 29.225234
194   1 0.0000   3.003185 15.605002 39.004132
195   1 0.0000   3.003185 15.605002 48.783030
196   1 0.0000   0.000001 20.806669  9.667438
197   1 0.0000   0.000001 20.806669 19.446336
198   1 0.0000   0.000001 20.806669 29.225234
199   1 0.0000   0.000001 20.806669 39.004132
200   1 0.0000   0.000001 20.806669 48.783030
201   1 0.0000  18.019103 -0.000000  9.667438
202   1 0.0000  18.019103 -0.000000 19.446336
203   1 0.0000  18.019103 -0.000000 29.225234
204   1 0.0000  18.019103 -0.000000 39.004132
205   1 0.0000  18.019103 -0.000000 48.783030
206   1 0.0000  15.015920  5.201667  9.667438
207   1 0.0000  15.015920  5.201667 19.446336
208   1 0.0000  15.015920  5.201667 29.225234
209   1 0.0000  15.015920  5.201667 39.004132
210   1 0.0000  15.015920  5.201667 48.783030
211   1 0.0000  12.012736 10.403334  9.667438
212   1 0.0000  12.012736 10.403334 19.446336
213   1 0.0000  12.012736 10.403334 29.225234
214   1 0.0000  12.012736 10.403334 39.004132
215   1 0.0000  12.012736 10.403334 48.783030
216   1 0.0000   9.009552 15.605002  9.667438
217   1 0.0000   9.009552 15.605002 19.446336
218   1 0.0000   9.009552 15.605002 29.225234
219   1 0.0000   9.009552 15.605002 39.004132
220   1 0.0000   9.009552 15.605002 48.783030
221   1 0.0000   6.006369 20.806669  9.667438
222   1 0.0000   6.006369 20.806669 19.446336
223   1 0.0000   6.006369 20.806669 29.225234
224   1 0.0000   6.006369 20.806669 39.004132
225   1 0.0000   6.006369 20.806669 48.783030
226   1 0.0000  24.025471 -0.000000  9.667438
227   1 0.0000  24.025471 -0.000000 19.446336
228   1 0.0000  24.025471 -0.000000 29.225234
229   1 0.0000  24.025471 -0.000000 39.004132
230   1 0.0000  24.025471 -0.000000 48.783030
231   1 0.0000  21.022287  5.201667  9.667438
232   1 0.0000  21.022287  5.201667 19.446336
233   1 0.0000  21.022287  5.201667 29.225234
234   1 0.0000  21.022287  5.201667 39.004132
235   1 0.0000  21.022287  5.201667 48.783030
236   1 0.0000  18.019104 10.403334  9.667438
237   1 0.0000  18.019104 10.403334 19.446336
238   1 0.0000  18.019104 10.403334 29.225234
239   1 0.0000  18.019104 10.403334 39.004132
240   1 0.0000  18.019104 10.403334 48.783030
241   1 0.0000  15.015920 15.605002  9.667438
242   1 0.0000  15.015920 15.605002 19.446336
243   1 0.0000  15.015920 15.605002 29.225234
244   1 0.0000  15.015920 15.605002 39.004132
245   1 0.0000  15.015920 15.605002 48.783030
246   1 0.0000  12.012736 20.806669  9.667438
247   1 0.0000  12.012736 20.806669 19.446336
248   1 0.0000  12.012736 20.806669 29.225234
249   1 0.0000  12.012736 20.806669 39.004132
250   1 0.0000  12.012736 20.806669 48.783030
251   1 0.0000   0.000000  0.000000  4.777989
252   1 0.0000   0.000000  0.000000 14.556887
253   1 0.0000   0.000000  0.000000 24.335785
254   1 0.0000   0.000000  0.000000 34.114683
255   1 0.0000   0.000000  0.000000 43.893581
256   1 0.0000  -3.003184  5.201667  4.777989
257   1 0.0000  -3.003184  5.201667 14.556887
258   1 0.0000  -3.003184  5.201667 24.335785
259   1 0.0000  -3.003184  5.201667 34.114683
260   1 0.0000  -3.003184  5.201667 43.893581
261   1 0.0000  -6.006367 10.403334  4.777989
262   1 0.0000  -6.006367 10.403334 14.556887
263   1 0.0000  -6.006367 10.403334 24.335785
264   1 0.0000  -6.006367 10.403334 34.114683
265   1 0.0000  -6.006367 10.403334 43.893581
266   1 0.0000  -9.009551 15.605002  4.777989
267   1 0.0000  -9.009551 15.605002 14.556887
268   1 0.0000  -9.009551 15.605002 24.335785
269   1 0.0000  -9.009551 15.605002 34.114683
270   1 0.0000  -9.009551 15.605002 43.893581
271   1 0.0000 -12.012735 20.806669  4.777989
272   1 0.0000 -12.012735 20.806669 14.556887
273   1 0.0000 -12.012735 20.806669 24.335785
274   1 0.0000 -12.012735 20.806669 34.114683
275   1 0.0000 -12.012735 20.806669 43.893581
276   1 0.0000   6.006368 -0.000000  4.777989
277   1 0.0000   6.006368 -0.000000 14.556887
278   1 0.0000   6.006368 -0.000000 24.335785
279   1 0.0000   6.006368 -0.000000 34.114683
280   1 0.0000   6.006368 -0.000000 43.893581
281   1 0.0000   3.003184  5.201667  4.777989
282   1 0.0000   3.003184  5.201667 14.556887
283   1 0.0000   3.003184  5.201667 24.335785
284   1 0.0000   3.003184  5.201667 34.114683
285   1 0.0000   3.003184  5.201667 43.893581
286   1 0.0000   0.000000 10.403334  4.777989
287   1 0.0000   0.000000 10.403334 14.556887
288   1 0.0000   0.000000 10.403334 24.335785
289   1 0.0000   0.000000 10.403334 34.114683
290   1 0.0000   0.000000 10.403334 43.893581
291   1 0.0000  -3.003183 15.605002  4.777989
292   1 0.0000  -3.003183 15.605002 14.556887
293   1 0.0000  -3.003183 15.605002 24.335785
294   1 0.0000  -3.003183 15.605002 34.114683
295   1 0.0000  -3.003183 15.605002 43.893581
296   1 0.0000  -6.006367 20.806669  4.777989
297   1 0.0000  -6.006367 20.806669 14.556887
298   1 0.0000  -6.006367 20.806669 24.335785
299   1 0.0000  -6.006367 20.806669 34.114683
300   1 0.0000  -6.006367 20.806669 43.893581
301   1 0.0000  12.012736 -0.000000  4.777989
302   1 0.0000  12.012736 -0.000000 14.556887
303   1 0.0000  12.012736 -0.000000 24.335785
304   1 0.0000  12.012736 -0.000000 34.114683
305   1 0.0000  12.012736 -0.000000 43.893581
306   1 0.0000   9.009552  5.201667  4.777989
307   1 0.0000   9.009552  5.201667 14.556887
308   1 0.0000   9.009552  5.201667 24.335785
309   1 0.0000   9.009552  5.201667 34.114683
310   1 0.0000   9.009552  5.201667 43.893581
311   1 0.0000   6.006368 10.403334  4.777989
312   1 0.0000   6.006368 10.403334 14.556887
313   1 0.0000   6.006368 10.403334 24.335785
314   1 0.0000   6.006368 10.403334 34.114683
315   1 0.0000   6.006368 10.403334 43.893581
316   1 0.0000   3.003185 15.605002  4.777989
317   1 0.0000   3.003185 15.605002 14.556887
318   1 0.0000   3.003185 15.605002 24.335785
319   1 0.0000   3.003185 15.605002 34.114683
320   1 0.0000   3.003185 15.605002 43.893581
321   1 0.0000   0.000001 20.806669  4.777989
322   1 0.0000   0.000001 20.806669 14.556887
323   1 0.0000   0.000001 20.806669 24.335785
324   1 0.0000   0.000001 20.806669 34.114683
325   1 0.0000   0.000001 20.806669 43.893581
326   1 0.0000  18.019103 -0.000000  4.777989
327   1 0.0000  18.019103 -0.000000 14.556887
328   1 0.0000  18.019103 -0.000000 24.335785
329   1 0.0000  18.019103 -0.000000 34.114683
330   1 0.0000  18.019103 -0.000000 43.893581
331   1 0.0000  15.015920  5.201667  4.777989
332   1 0.0000  15.015920  5.201667 14.556887
333   1 0.0000  15.015920  5.201667 24.335785
334   1 0.0000  15.015920  5.201667 34.114683
335   1 0.0000  15.015920  5.201667 43.893581
336   1 0.0000  12.012736 10.403334  4.777989
337   1 0.0000  12.012736 10.403334 14.556887
338   1 0.0000  12.012736 10.403334 24.335785
339   1 0.0000  12.012736 10.403334 34.114683
340   1 0.0000  12.012736 10.403334 43.893581
341   1 0.0000   9.009552 15.605002  4.777989
342   1 0.0000   9.009552 15.605002 14.556887
343   1 0.0000   9.009552 15.605002 24.335785
344   1 0.0000   9.009552 15.605002 34.114683
345   1 0.0000   9.009552 15.605002 43.893581
346   1 0.0000   6.006369 20.806669  4.777989
347   1 0.0000   6.006369 20.806669 14.556887
348   1 0.0000   6.006369 20.806669 24.335785
349   1 0.0000   6.006369 20.806669 34.114683
350   1 0.0000   6.006369 20.806669 43.893581
351   1 0.0000  24.025471 -0.000000  4.777989
352   1 0.0000  24.025471 -0.000000 14.556887
353   1 0.0000  24.025471 -0.000000 24.335785
354   1 0.0000  24.025471 -0.000000 34.114683
355   1 0.0000  24.025471 -0.000000 43.893581
356   1 0.0000  21.022287  5.201667  4.777989
357   1 0.0000  21.022287  5.201667 14.556887
358   1 0.0000  21.022287  5.201667 24.335785
359   1 0.0000  21.022287  5.201667 34.114683
360   1 0.0000  21.022287  5.201667 43.893581
361   1 0.0000  18.019104 10.403334  4.777989
362   1 0.0000  18.019104 10.403334 14.556887
363   1 0.0000  18.019104 10.403334 24.335785
364   1 0.0000  18.019104 10.403334 34.114683
365   1 0.0000  18.019104 10.403334 43.893581
366   1 0.0000  15.015920 15.605002  4.777989
367   1 0.0000  15.015920 15.605002 14.556887
368   1 0.0000  15.015920 15.605002 24.335785
369   1 0.0000  15.015920 15.605002 34.114683
370   1 0.0000  15.015920 15.605002 43.893581
371   1 0.0000  12.012736 20.806669  4.777989
372   1 0.0000  12.012736 20.806669 14.556887
373   1 0.0000  12.012736 20.806669 24.335785
374   1 0.0000  12.012736 20.806669 34.114683
375   1 0.0000  12.012736 20.806669 43.893581
376   1 0.0000   3.003187  1.733887  3.939370
377   1 0.0000   3.003187  1.733887 13.718268
378   1 0.0000   3.003187  1.733887 23.497166
379   1 0.0000   3.003187  1.733887 33.276064
380   1 0.0000   3.003187  1.733887 43.054962
381   1 0.0000   0.000003  6.935555  3.939370
382   1 0.0000   0.000003  6.935555 13.718268
383   1 0.0000   0.000003  6.935555 23.497166
384   1 0.0000   0.000003  6.935555 33.276064
385   1 0.0000   0.000003  6.935555 43.054962
386   1 0.0000  -3.003180 12.137222  3.939370
387   1 0.0000  -3.003180 12.137222 13.718268
388   1 0.0000  -3.003180 12.137222 23.497166
389   1 0.0000  -3.003180 12.137222 33.276064
390   1 0.0000  -3.003180 12.137222 43.054962
391   1 0.0000  -6.006364 17.338889  3.939370
392   1 0.0000  -6.006364 17.338889 13.718268
393   1 0.0000  -6.006364 17.338889 23.497166
394   1 0.0000  -6.006364 17.338889 33.276064
395   1 0.0000  -6.006364 17.338889 43.054962
396   1 0.0000  -9.009548 22.540556  3.939370
397   1 0.0000  -9.009548 22.540556 13.718268
398   1 0.0000  -9.009548 22.540556 23.497166
399   1 0.0000  -9.009548 22.540556 33.276064
400   1 0.0000  -9.009548 22.540556 43.054962
401   1 0.0000   9.009555  1.733887  3.939370
402   1 0.0000   9.009555  1.733887 13.718268
403   1 0.0000   9.009555  1.733887 23.497166
404   1 0.0000   9.009555  1.733887 33.276064
405   1 0.0000   9.009555  1.733887 43.054962
406   1 0.0000   6.006371  6.935555  3.939370
407   1 0.0000   6.006371  6.935555 13.718268
408   1 0.0000   6.006371  6.935555 23.497166
409   1 0.0000   6.006371  6.935555 33.276064
410   1 0.0000   6.006371  6.935555 43.054962
411   1 0.0000   3.003187 12.137222  3.939370
412   1 0.0000   3.003187 12.137222 13.718268
413   1 0.0000   3.003187 12.137222 23.497166
414   1 0.0000   3.003187 12.137222 33.276064
415   1 0.0000   3.003187 12.137222 43.054962
416   1 0.0000   0.000004 17.338889  3.939370
417   1 0.0000   0.000004 17.338889 13.718268
418   1 0.0000   0.000004 17.338889 23.497166
419   1 0.0000   0.000004 17.338889 33.276064
420   1 0.0000   0.000004 17.338889 43.054962
421   1 0.0000  -3.003180 22.540556  3.939370
422   1 0.0000  -3.003180 22.540556 13.718268
423   1 0.0000  -3.003180 22.540556 23.497166
424   1 0.0000  -3.003180 22.540556 33.276064
425   1 0.0000  -3.003180 22.540556 43.054962
426   1 0.0000  15.015922  1.733887  3.939370
427   1 0.0000  15.015922  1.733887 13.718268
428   1 0.0000  15.015922  1.733887 23.497166
429   1 0.0000  15.015922  1.733887 33.276064
430   1 0.0000  15.015922  1.733887 43.054962
431   1 0.0000  12.012739  6.935555  3.939370
432   1 0.0000  12.012739  6.935555 13.718268
433   1 0.0000  12.012739  6.935555 23.497166
434   1 0.0000  12.012739  6.935555 33.276064
435   1 0.0000  12.012739  6.935555 43.054962
436   1 0.0000   9.009555 12.137222  3.939370
437   1 0.0000   9.009555 12.137222 13.718268
438   1 0.0000   9.009555 12.137222 23.497166
439   1 0.0000   9.009555 12.137222 33.276064
440   1 0.0000   9.009555 12.137222 43.054962
441   1 0.0000   6.006372 17.338889  3.939370
442   1 0.0000   6.006372 17.338889 13.718268
443   1 0.0000   6.006372 17.338889 23.497166
444   1 0.0000   6.006372 17.338889 33.276064
445   1 0.0000   6.006372 17.338889 43.054962
446   1 0.0000   3.003188 22.540556  3.939370
447   1 0.0000   3.003188 22.540556 13.718268
448   1 0.0000   3.003188 22.540556 23.497166
449   1 0.0000   3.003188 22.540556 33.276064
450   1 0.0000   3.003188 22.540556 43.054962
451   1 0.0000  21.022290  1.733887  3.939370
452   1 0.0000  21.022290  1.733887 13.718268
453   1 0.0000  21.022290  1.733887 23.497166
454   1 0.0000  21.022290  1.733887 33.276064
455   1 0.0000  21.022290  1.733887 43.054962
456   1 0.0000  18.019107  6.935555  3.939370
457   1 0.0000  18.019107  6.935555 13.718268
458   1 0.0000  18.019107  6.935555 23.497166
459   1 0.0000  18.019107  6.935555 33.276064
460   1 0.0000  18.019107  6.935555 43.054962
461   1 0.0000  15.015923 12.137222  3.939370
462   1 0.0000  15.015923 12.137222 13.718268
463   1 0.0000  15.015923 12.137222 23.497166
464   1 0.0000  15.015923 12.137222 33.276064
465   1 0.0000  15.015923 12.137222 43.054962
466   1 0.0000  12.012739 17.338889  3.939370
467   1 0.0000  12.012739 17.338889 13.718268
468   1 0.0000  12.012739 17.338889 23.497166
469   1 0.0000  12.012739 17.338889 33.276064
470   1 0.0000  12.012739 17.338889 43.054962
471   1 0.0000   9.009556 22.540556  3.939370
472   1 0.0000   9.009556 22.540556 13.718268
473   1 0.0000   9.009556 22.540556 23.497166
474   1 0.0000   9.009556 22.540556 33.276064
475   1 0.0000   9.009556 22.540556 43.054962
476   1 0.0000  27.028658  1.733887  3.939370
477   1 0.0000  27.028658  1.733887 13.718268
478   1 0.0000  27.028658  1.733887 23.497166
479   1 0.0000  27.028658  1.733887 33.276064
480   1 0.0000  27.028658  1.733887 43.054962
481   1 0.0000  24.025474  6.935555  3.939370
482   1 0.0000  24.025474  6.935555 13.718268
483   1 0.0000  24.025474  6.935555 23.497166
484   1 0.0000  24.025474  6.935555 33.276064
485   1 0.0000  24.025474  6.935555 43.054962
486   1 0.0000  21.022291 12.137222  3.939370
487   1 0.0000  21.022291 12.137222 13.718268
488   1 0.0000  21.022291 12.137222 23.497166
489   1 0.0000  21.022291 12.137222 33.276064
490   1 0.0000  21.022291 12.137222 43.054962
491   1 0.0000  18.019107 17.338889  3.939370
492   1 0.0000  18.019107 17.338889 13.718268
493   1 0.0000  18.019107 17.338889 23.497166
494   1 0.0000  18.019107 17.338889 33.276064
495   1 0.0000  18.019107 17.338889 43.054962
496   1 0.0000  15.015923 22.540556  3.939370
497   1 0.0000  15.015923 22.540556 13.718268
498   1 0.0000  15.015923 22.540556 23.497166
499   1 0.0000  15.015923 22.540556 33.276064
500   1 0.0000  15.015923 22.540556 43.054962
501   2 0.0000  -1.469244  4.316047  2.085301
502   2 0.0000  -1.469244  4.316047 11.864199
503   2 0.0000  -1.469244  4.316047 21.643097
504   2 0.0000  -1.469244  4.316047 31.421995
505   2 0.0000  -1.469244  4.316047 41.200893
506   2 0.0000  -4.472428  9.517714  2.085301
507   2 0.0000  -4.472428  9.517714 11.864199
508   2 0.0000  -4.472428  9.517714 21.643097
509   2 0.0000  -4.472428  9.517714 31.421995
510   2 0.0000  -4.472428  9.517714 41.200893
511   2 0.0000  -7.475612 14.719381  2.085301
512   2 0.0000  -7.475612 14.719381 11.864199
513   2 0.0000  -7.475612 14.719381 21.643097
514   2 0.0000  -7.475612 14.719381 31.421995
515   2 0.0000  -7.475612 14.719381 41.200893
516   2 0.0000 -10.478795 19.921049  2.085301
517   2 0.0000 -10.478795 19.921049 11.864199
518   2 0.0000 -10.478795 19.921049 21.643097
519   2 0.0000 -10.478795 19.921049 31.421995
520   2 0.0000 -10.478795 19.921049 41.200893
521   2 0.0000 -13.481979 25.122716  2.085301
522   2 0.0000 -13.481979 25.122716 11.864199
523   2 0.0000 -13.481979 25.122716 21.643097
524   2 0.0000 -13.481979 25.122716 31.421995
525   2 0.0000 -13.481979 25.122716 41.200893
526   2 0.0000   4.537123  4.316047  2.085301
527   2 0.0000   4.537123  4.316047 11.864199
528   2 0.0000   4.537123  4.316047 21.643097
529   2 0.0000   4.537123  4.316047 31.421995
530   2 0.0000   4.537123  4.316047 41.200893
531   2 0.0000   1.533940  9.517714  2.085301
532   2 0.0000   1.533940  9.517714 11.864199
533   2 0.0000   1.533940  9.517714 21.643097
534   2 0.0000   1.533940  9.517714 31.421995
535   2 0.0000   1.533940  9.517714 41.200893
536   2 0.0000  -1.469244 14.719381  2.085301
537   2 0.0000  -1.469244 14.719381 11.864199
538   2 0.0000  -1.469244 14.719381 21.643097
539   2 0.0000  -1.469244 14.719381 31.421995
540   2 0.0000  -1.469244 14.719381 41.200893
541   2 0.0000  -4.472428 19.921049  2.085301
542   2 0.0000  -4.472428 19.921049 11.864199
543   2 0.0000  -4.472428 19.921049 21.643097
544   2 0.0000  -4.472428 19.921049 31.421995
545   2 0.0000  -4.472428 19.921049 41.200893
546   2 0.0000  -7.475611 25.122716  2.085301
547   2 0.0000  -7.475611 25.122716 11.864199
548   2 0.0000  -7.475611 25.122716 21.643097
549   2 0.0000  -7.475611 25.122716 31.421995
550   2 0.0000  -7.475611 25.122716 41.200893
551   2 0.0000  10.543491  4.316047  2.085301
552   2 0.0000  10.543491  4.316047 11.864199
553   2 0.0000  10.543491  4.316047 21.643097
554   2 0.0000  10.543491  4.316047 31.421995
555   2 0.0000  10.543491  4.316047 41.200893
556   2 0.0000   7.540307  9.517714  2.085301
557   2 0.0000   7.540307  9.517714 11.864199
558   2 0.0000   7.540307  9.517714 21.643097
559   2 0.0000   7.540307  9.517714 31.421995
560   2 0.0000   7.540307  9.517714 41.200893
561   2 0.0000   4.537124 14.719381  2.085301
562   2 0.0000   4.537124 14.719381 11.864199
563   2 0.0000   4.537124 14.719381 21.643097
564   2 0.0000   4.537124 14.719381 31.421995
565   2 0.0000   4.537124 14.719381 41.200893
566   2 0.0000   1.533940 19.921049  2.085301
567   2 0.0000   1.533940 19.921049 11.864199
568   2 0.0000   1.533940 19.921049 21.643097
569   2 0.0000   1.533940 19.921049 31.421995
570   2 0.0000   1.533940 19.921049 41.200893
571   2 0.0000  -1.469244 25.122716  2.085301
572   2 0.0000  -1.469244 25.122716 11.864199
573   2 0.0000  -1.469244 25.122716 21.643097
574   2 0.0000  -1.469244 25.122716 31.421995
575   2 0.0000  -1.469244 25.122716 41.200893
576   2 0.0000  16.549859  4.316047  2.085301
577   2 0.0000  16.549859  4.316047 11.864199
578   2 0.0000  16.549859  4.316047 21.643097
579   2 0.0000  16.549859  4.316047 31.421995
580   2 0.0000  16.549859  4.316047 41.200893
581   2 0.0000  13.546675  9.517714  2.085301
582   2 0.0000  13.546675  9.517714 11.864199
583   2 0.0000  13.546675  9.517714 21.643097
584   2 0.0000  13.546675  9.517714 31.421995
585   2 0.0000  13.546675  9.517714 41.200893
586   2 0.0000  10.543492 14.719381  2.085301
587   2 0.0000  10.543492 14.719381 11.864199
588   2 0.0000  10.543492 14.719381 21.643097
589   2 0.0000  10.543492 14.719381 31.421995
590   2 0.0000  10.543492 14.719381 41.200893
591   2 0.0000   7.540308 19.921049  2.085301
592   2 0.0000   7.540308 19.921049 11.864199
593   2 0.0000   7.540308 19.921049 21.643097
594   2 0.0000   7.540308 19.921049 31.421995
595   2 0.0000   7.540308 19.921049 41.200893
596   2 0.0000   4.537124 25.122716  2.085301
597   2 0.0000   4.537124 25.122716 11.864199
598   2 0.0000   4.537124 25.122716 21.643097
599   2 0.0000   4.537124 25.122716 31.421995
600   2 0.0000   4.537124 25.122716 41.200893
601   2 0.0000  22.556227  4.316047  2.085301
602   2 0.0000  22.556227  4.316047 11.864199
603   2 0.0000  22.556227  4.316047 21.643097
604   2 0.0000  22.556227  4.316047 31.421995
605   2 0.0000  22.556227  4.316047 41.200893
606   2 0.0000  19.553043  9.517714  2.085301
607   2 0.0000  19.553043  9.517714 11.864199
608   2 0.0000  19.553043  9.517714 21.643097
609   2 0.0000  19.553043  9.517714 31.421995
610   2 0.0000  19.553043  9.517714 41.200893
611   2 0.0000  16.549859 14.719381  2.085301
612   2 0.0000  16.549859 14.719381 11.864199
613   2 0.0000  16.549859 14.719381 21.643097
614   2 0.0000  16.549859 14.719381 31.421995
615   2 0.0000  16.549859 14.719381 41.200893
616   2 0.0000  13.546676 19.921049  2.085301
617   2 0.0000  13.546676 19.921049 11.864199
618   2 0.0000  13.546676 19.921049 21.643097
619   2 0.0000  13.546676 19.921049 31.421995
620   2 0.0000  13.546676 19.921049 41.200893
621   2 0.0000  10.543492 25.122716  2.085301
622   2 0.0000  10.543492 25.122716 11.864199
623   2 0.0000  10.543492 25.122716 21.643097
624   2 0.0000  10.543492 25.122716 31.421995
625   2 0.0000  10.543492 25.122716 41.200893
626   2 0.0000  -0.000003  1.771246  2.085301
627   2 0.0000  -0.000003  1.771246 11.864199
628   2 0.0000  -0.000003  1.771246 21.643097
629   2 0.0000  -0.000003  1.771246 31.421995
630   2 0.0000  -0.000003  1.771246 41.200893
631   2 0.0000  -3.003187  6.972913  2.085301
632   2 0.0000  -3.003187  6.972913 11.864199
633   2 0.0000  -3.003187  6.972913 21.643097
634   2 0.0000  -3.003187  6.972913 31.421995
635   2 0.0000  -3.003187  6.972913 41.200893
636   2 0.0000  -6.006370 12.174580  2.085301
637   2 0.0000  -6.006370 12.174580 11.864199
638   2 0.0000  -6.006370 12.174580 21.643097
639   2 0.0000  -6.006370 12.174580 31.421995
640   2 0.0000  -6.006370 12.174580 41.200893
641   2 0.0000  -9.009554 17.376247  2.085301
642   2 0.0000  -9.009554 17.376247 11.864199
643   2 0.0000  -9.009554 17.376247 21.643097
644   2 0.0000  -9.009554 17.376247 31.421995
645   2 0.0000  -9.009554 17.376247 41.200893
646   2 0.0000 -12.012738 22.577915  2.085301