LAMMPS (29 Aug 2024)
OMP_NUM_THREADS environment is not set. Defaulting to 1 thread. (src/comm.cpp:98)
  using 1 OpenMP thread(s) per MPI task
# LAMMPS Quenching Script for Li2Fe3SbO8 - 5 K/ps
# VERY SLOW quench - mostly crystalline
units metal
atom_style charge
boundary p p p
processors * * *  # Use all available processors

# FIRST: Read structure to define box
read_data Li2Fe3SbO8_melted_liquid.data
Reading data file ...
  triclinic box = (0 0 0) to (30.031839 26.008336 48.89449) with tilt (-15.015918 0 0)
WARNING: Triclinic box skew is large. LAMMPS will run inefficiently. (src/domain.cpp:221)
  2 by 1 by 3 MPI processor grid
  reading atoms ...
  3500 atoms
  reading velocities ...
  3500 velocities
  read_data CPU = 0.019 seconds

# THEN: Define potential (after box is defined)
# Morse potential for strong ceramic bonding
# This gives REAL solid behavior, not gas!

# Morse potential - much better for solids than LJ
pair_style morse 12.0

# NOW set pair coefficients (after both pair_style and read_data)
# D0=5.0 eV (strong bonds), alpha=2.0, r0=2.5 Angstrom
pair_coeff * * 5.0 2.0 2.5

# Neighbor list
neighbor 2.0 bin
neigh_modify every 1 delay 0 check yes

# STAGE 1: QUENCH from 4500K to 300K at 5 K/ps
# This will take 840.0 ps
# Use NVT to maintain density during cooling
fix 1 all nvt temp 4500 300 $(100.0*dt)
fix 1 all nvt temp 4500 300 0.10000000000000000555
timestep 0.001

# Output
thermo 1000
thermo_style custom step time temp press vol etotal ke pe density
dump 1 all custom 5000 Li2Fe3SbO8_quench_5Kps_trajectory.dump id type x y z vx vy vz

print "Starting QUENCH of Li2Fe3SbO8 from liquid at 4500K to 300K"
Starting QUENCH of Li2Fe3SbO8 from liquid at 4500K to 300K
print "Cooling rate: 5 K/ps - expecting crystalline"
Cooling rate: 5 K/ps - expecting crystalline
run 840000

CITE-CITE-CITE-CITE-CITE-CITE-CITE-CITE-CITE-CITE-CITE-CITE-CITE

Your simulation uses code contributions which should be cited:

- Type Label Framework: https://doi.org/10.1021/acs.jpcb.3c08419

@Article{Gissinger24,
 author = {Jacob R. Gissinger, Ilia Nikiforov, Yaser Afshar, Brendon Waters, Moon-ki Choi, Daniel S. Karls, Alexander Stukowski, Wonpil Im, Hendrik Heinz, Axel Kohlmeyer, and Ellad B. Tadmor},
 title = {Type Label Framework for Bonded Force Fields in LAMMPS},
 journal = {J. Phys. Chem. B},
 year =    2024,
 volume =  128,
 number =  13,
 pages =   {3282–-3297}
}

CITE-CITE-CITE-CITE-CITE-CITE-CITE-CITE-CITE-CITE-CITE-CITE-CITE

Generated 0 of 6 mixed pair_coeff terms from geometric mixing rule
Neighbor list info ...
  update: every = 1 steps, delay = 0 steps, check = yes
  max neighbors/atom: 2000, page size: 100000
  master list distance cutoff = 14
  ghost atom cutoff = 14
  binsize = 7, bins = 7 4 7
  1 neighbor lists, perpetual/occasional/extra = 1 0 0
  (1) pair morse, perpetual
      attributes: half, newton on
      pair build: half/bin/atomonly/newton/tri
      stencil: half/bin/3d/tri
      bin: standard
Per MPI rank memory allocation (min/avg/max) = 4.92 | 4.937 | 4.946 Mbytes
   Step          Time           Temp          Press          Volume         TotEng         KinEng         PotEng        Density    
         0   0              4452.1197     -1929203.1      38190.418     -125757.68      2013.6102     -127771.29      4.686897     
      1000   1              4580.8469     -1917955.6      38190.418     -125650.43      2071.8311     -127722.26      4.686897     
      2000   2              4481.9397     -1922012.1      38190.418     -125732.49      2027.0973     -127759.58      4.686897     
      3000   3              4512.4782     -1937637.4      38190.418     -125815.14      2040.9093     -127856.05      4.686897     
      4000   4              4500.2637     -1934632.4      38190.418     -125775.87      2035.3849     -127811.25      4.686897     
      5000   5              4442.6779     -1937647        38190.418     -125812.69      2009.3399     -127822.03      4.686897     
      6000   6              4345.509      -1928750.1      38190.418     -125804.74      1965.3922     -127770.13      4.686897     
      7000   7              4514.8987     -1924357.8      38190.418     -125714.06      2042.004      -127756.06      4.686897     
      8000   8              4461.1504     -1933431.3      38190.418     -125798.43      2017.6947     -127816.12      4.686897     
      9000   9              4482.0881     -1939975        38190.418     -125823.03      2027.1644     -127850.19      4.686897     
     10000   10             4477.4817     -1927166.1      38190.418     -125762.55      2025.081      -127787.63      4.686897     
     11000   11             4389.8039     -1936806.3      38190.418     -125831.75      1985.426      -127817.17      4.686897     
     12000   12             4489.0139     -1937428.7      38190.418     -125809.28      2030.2968     -127839.57      4.686897     
     13000   13             4371.6834     -1931249.7      38190.418     -125829.11      1977.2304     -127806.34      4.686897     
     14000   14             4417.6449     -1932601.7      38190.418     -125817.88      1998.018      -127815.9       4.686897     
     15000   15             4462.2378     -1925669.9      38190.418     -125771.47      2018.1865     -127789.66      4.686897     
     16000   16             4397.0806     -1934681        38190.418     -125839.27      1988.7171     -127827.99      4.686897     
     17000   17             4463.2344     -1931416.2      38190.418     -125779.6       2018.6372     -127798.24      4.686897     
     18000   18             4509.1745     -1935750.1      38190.418     -125794.72      2039.4151     -127834.13      4.686897     
     19000   19             4465.4387     -1943317.3      38190.418     -125850.66      2019.6342     -127870.29      4.686897     
     20000   20             4372.9099     -1943678.4      38190.418     -125895.35      1977.7852     -127873.13      4.686897     
     21000   21             4441.9788     -1934763.9      38190.418     -125819.85      2009.0237     -127828.87      4.686897     
     22000   22             4411.5717     -1936852.1      38190.418     -125855.67      1995.2712     -127850.94      4.686897     
     23000   23             4316.6178     -1938792.2      38190.418     -125888.2       1952.3253     -127840.52      4.686897     
     24000   24             4395.7236     -1937798.2      38190.418     -125844.44      1988.1034     -127832.54      4.686897     
     25000   25             4416.3727     -1941250.6      38190.418     -125868.13      1997.4426     -127865.57      4.686897     
     26000   26             4289.0454     -1936001.5      38190.418     -125882.03      1939.8548     -127821.88      4.686897     
     27000   27             4418.2296     -1936223.3      38190.418     -125825.66      1998.2824     -127823.94      4.686897     
     28000   28             4393.8336     -1941681.7      38190.418     -125873.83      1987.2486     -127861.08      4.686897     
     29000   29             4335.8564     -1935297.9      38190.418     -125860.41      1961.0265     -127821.44      4.686897     
     30000   30             4331.9389     -1934897        38190.418     -125873.84      1959.2547     -127833.09      4.686897     
     31000   31             4254.893      -1941636.1      38190.418     -125922.81      1924.4083     -127847.22      4.686897     
     32000   32             4338.895      -1940212.7      38190.418     -125885.44      1962.4008     -127847.84      4.686897     
     33000   33             4254.2425     -1937435.3      38190.418     -125914.68      1924.1141     -127838.8       4.686897     
     34000   34             4325.8938     -1946815.4      38190.418     -125933.8       1956.5206     -127890.32      4.686897     
     35000   35             4358.3178     -1939136.8      38190.418     -125866.03      1971.1854     -127837.21      4.686897     
     36000   36             4242.1641     -1947875.2      38190.418     -125980.8       1918.6513     -127899.45      4.686897     
     37000   37             4305.8761     -1935932.5      38190.418     -125898.75      1947.467      -127846.22      4.686897     
     38000   38             4391.1032     -1936042.1      38190.418     -125840.18      1986.0136     -127826.19      4.686897     
     39000   39             4323.2837     -1946257.5      38190.418     -125938.64      1955.3402     -127893.98      4.686897     
     40000   40             4333.3724     -1944937        38190.418     -125928.82      1959.9031     -127888.72      4.686897     
     41000   41             4347.2995     -1942935.7      38190.418     -125906.91      1966.202      -127873.11      4.686897     
     42000   42             4286.5636     -1940413.5      38190.418     -125933.11      1938.7323     -127871.85      4.686897     
     43000   43             4283.3363     -1950641.8      38190.418     -125970.25      1937.2727     -127907.53      4.686897     
     44000   44             4337.8064     -1943001.8      38190.418     -125910.93      1961.9085     -127872.84      4.686897     
     45000   45             4227.5486     -1948057.1      38190.418     -125973.11      1912.0409     -127885.15      4.686897     
     46000   46             4360.4024     -1944854.7      38190.418     -125920         1972.1282     -127892.13      4.686897     
     47000   47             4287.688      -1949700.3      38190.418     -125958.09      1939.2409     -127897.33      4.686897     
     48000   48             4303.2801     -1950664        38190.418     -125968.81      1946.2929     -127915.11      4.686897     
     49000   49             4343.6702     -1955565        38190.418     -125998.11      1964.5606     -127962.67      4.686897     
     50000   50             4219.0875     -1953390.2      38190.418     -126023.17      1908.2141     -127931.39      4.686897     
     51000   51             4253.3738     -1945786.6      38190.418     -125976.45      1923.7212     -127900.17      4.686897     
     52000   52             4224.9862     -1947631.3      38190.418     -125975.33      1910.882      -127886.21      4.686897     
     53000   53             4239.3416     -1950847.6      38190.418     -125992.23      1917.3747     -127909.6       4.686897     
     54000   54             4261.0009     -1946998.4      38190.418     -125969.48      1927.1708     -127896.65      4.686897     
     55000   55             4350.2095     -1945166.1      38190.418     -125919.47      1967.5182     -127886.99      4.686897     
     56000   56             4204.8669     -1955317.1      38190.418     -126015.67      1901.7824     -127917.45      4.686897     
     57000   57             4307.1512     -1949495.8      38190.418     -125980.46      1948.0437     -127928.51      4.686897     
     58000   58             4037.8803     -1958992.6      38190.418     -126128.15      1826.2575     -127954.41      4.686897     
     59000   59             4171.8493     -1948352.3      38190.418     -126014.01      1886.8492     -127900.86      4.686897     
     60000   60             4055.4715     -1948306.2      38190.418     -126048.7       1834.2137     -127882.92      4.686897     
     61000   61             4150.1662     -1950644.1      38190.418     -126025.66      1877.0424     -127902.7       4.686897     
     62000   62             4117.5481     -1953467        38190.418     -126068.72      1862.2898     -127931.01      4.686897     
     63000   63             4211.1614     -1952491.4      38190.418     -126015.59      1904.6293     -127920.22      4.686897     
     64000   64             4218.704      -1958942.2      38190.418     -126038.39      1908.0407     -127946.43      4.686897     
     65000   65             4152.7032     -1945460.5      38190.418     -126000.99      1878.1898     -127879.18      4.686897     
     66000   66             4071.4223     -1954909        38190.418     -126100.11      1841.4279     -127941.54      4.686897     
     67000   67             4165.0228     -1957841.9      38190.418     -126052.65      1883.7617     -127936.41      4.686897     
     68000   68             4157.5386     -1953752        38190.418     -126052.31      1880.3768     -127932.69      4.686897     
     69000   69             4194.3871     -1963803.3      38190.418     -126096.71      1897.0426     -127993.75      4.686897     
     70000   70             4194.5245     -1953960.3      38190.418     -126049.31      1897.1048     -127946.42      4.686897     
     71000   71             4121.6428     -1953742.9      38190.418     -126066.74      1864.1417     -127930.89      4.686897     
     72000   72             4065.4227     -1959466.7      38190.418     -126135.97      1838.7145     -127974.68      4.686897     
     73000   73             4138.0768     -1958324.3      38190.418     -126083.05      1871.5746     -127954.62      4.686897     
     74000   74             4151.1523     -1957963.4      38190.418     -126072.97      1877.4883     -127950.45      4.686897     
     75000   75             4150.149      -1965893.6      38190.418     -126114.69      1877.0345     -127991.72      4.686897     
     76000   76             4161.5879     -1955517.6      38190.418     -126064.41      1882.2082     -127946.62      4.686897     
     77000   77             4033.1478     -1959808.6      38190.418     -126139.68      1824.1171     -127963.8       4.686897     
     78000   78             4188.7029     -1959596.5      38190.418     -126080.11      1894.4718     -127974.58      4.686897     
     79000   79             4171.641      -1959866.7      38190.418     -126088.71      1886.755      -127975.47      4.686897     
     80000   80             4012.695      -1956511.1      38190.418     -126129.32      1814.8667     -127944.18      4.686897     
     81000   81             4102.3443     -1958540.1      38190.418     -126107.04      1855.4134     -127962.45      4.686897     
     82000   82             4109.7239     -1963432.4      38190.418     -126122.81      1858.7511     -127981.56      4.686897     
     83000   83             4107.8916     -1968812.5      38190.418     -126156.18      1857.9223     -128014.1       4.686897     
     84000   84             4068.9222     -1956225.8      38190.418     -126098.74      1840.2972     -127939.04      4.686897     
     85000   85             4027.9482     -1962862.8      38190.418     -126142.36      1821.7654     -127964.13      4.686897     
     86000   86             3991.5075     -1966698        38190.418     -126196.26      1805.284      -128001.55      4.686897     
     87000   87             4046.3369     -1960845.4      38190.418     -126130.91      1830.0823     -127961         4.686897     
     88000   88             4034.9471     -1971278.1      38190.418     -126191.97      1824.9309     -128016.9       4.686897     
     89000   89             4007.8578     -1963667        38190.418     -126173.31      1812.6789     -127985.99      4.686897     
     90000   90             4115.1594     -1963851.3      38190.418     -126120.79      1861.2094     -127982         4.686897     
     91000   91             4082.8659     -1964051.5      38190.418     -126168.99      1846.6037     -128015.59      4.686897     
     92000   92             3973.1075     -1963770.4      38190.418     -126191.53      1796.962      -127988.49      4.686897     
     93000   93             3986.3195     -1969419.9      38190.418     -126217.05      1802.9375     -128019.99      4.686897     
     94000   94             4121.5473     -1961986.1      38190.418     -126117.51      1864.0986     -127981.61      4.686897     
     95000   95             4011.5199     -1969718.6      38190.418     -126212.3       1814.3352     -128026.63      4.686897     
     96000   96             4092.5396     -1960860.7      38190.418     -126113.18      1850.9789     -127964.16      4.686897     
     97000   97             4000.5434     -1967451.3      38190.418     -126206.54      1809.3708     -128015.91      4.686897     
     98000   98             4115.2542     -1970591        38190.418     -126183.21      1861.2523     -128044.46      4.686897     
     99000   99             3987.9587     -1972606.7      38190.418     -126237.58      1803.6789     -128041.26      4.686897     
    100000   100            3927.6772     -1973178.6      38190.418     -126255.28      1776.4147     -128031.69      4.686897     
    101000   101            3997.028      -1967864.8      38190.418     -126189.26      1807.7808     -127997.04      4.686897     
    102000   102            3974.674      -1962343.3      38190.418     -126176.24      1797.6705     -127973.91      4.686897     
    103000   103            3919.6692     -1970114.8      38190.418     -126249.44      1772.7929     -128022.23      4.686897     
    104000   104            4029.3844     -1966414        38190.418     -126195.53      1822.415      -128017.95      4.686897     
    105000   105            4036.8936     -1977871.8      38190.418     -126260.71      1825.8113     -128086.52      4.686897     
    106000   106            3887.5461     -1976999.8      38190.418     -126297.91      1758.2642     -128056.17      4.686897     
    107000   107            3998.8327     -1968996.4      38190.418     -126220.03      1808.597      -128028.63      4.686897     
    108000   108            3869.3655     -1979736.2      38190.418     -126326.92      1750.0415     -128076.96      4.686897     
    109000   109            3891.6204     -1972920.5      38190.418     -126266.2       1760.1069     -128026.31      4.686897     
    110000   110            3931.9505     -1966520.6      38190.418     -126205.68      1778.3475     -127984.03      4.686897     
    111000   111            3972.2362     -1977489.9      38190.418     -126269.3       1796.568      -128065.87      4.686897     
    112000   112            3813.7866     -1977904.7      38190.418     -126322.36      1724.9042     -128047.26      4.686897     
    113000   113            3925.2466     -1970622.3      38190.418     -126242.75      1775.3154     -128018.07      4.686897     
    114000   114            3967.3793     -1971718.7      38190.418     -126246.86      1794.3713     -128041.23      4.686897     
    115000   115            3958.6755     -1974839.1      38190.418     -126271.61      1790.4347     -128062.04      4.686897     
    116000   116            3927.7474     -1981322.8      38190.418     -126322.82      1776.4465     -128099.26      4.686897     
    117000   117            3986.73       -1975735.5      38190.418     -126277.08      1803.1232     -128080.21      4.686897     
    118000   118            3820.7894     -1977847.3      38190.418     -126335.44      1728.0714     -128063.51      4.686897     
    119000   119            3819.8359     -1967800.1      38190.418     -126277.59      1727.6401     -128005.23      4.686897     
    120000   120            3956.5615     -1971959.8      38190.418     -126240.83      1789.4786     -128030.31      4.686897     
    121000   121            3915.2334     -1980299.1      38190.418     -126328.43      1770.7866     -128099.21      4.686897     
    122000   122            3959.4216     -1971945.2      38190.418     -126243.44      1790.7721     -128034.21      4.686897     
    123000   123            3917.8215     -1974283.6      38190.418     -126277.12      1771.9572     -128049.08      4.686897     
    124000   124            3825.1654     -1978976.1      38190.418     -126347.7       1730.0506     -128077.75      4.686897     
    125000   125            3840.2252     -1982057.7      38190.418     -126340.58      1736.8619     -128077.44      4.686897     
    126000   126            3890.2955     -1976974.2      38190.418     -126310.25      1759.5077     -128069.76      4.686897     
    127000   127            3845.7442     -1981747.7      38190.418     -126360.32      1739.358      -128099.67      4.686897     
    128000   128            3908.4916     -1978745.5      38190.418     -126301.2       1767.7375     -128068.93      4.686897     
    129000   129            3967.4769     -1972577.3      38190.418     -126273.51      1794.4154     -128067.93      4.686897     
    130000   130            3851.6509     -1985717.6      38190.418     -126376.57      1742.0295     -128118.6       4.686897     
    131000   131            3819.8507     -1984708.8      38190.418     -126371.24      1727.6468     -128098.89      4.686897     
    132000   132            3791.6302     -1989837.7      38190.418     -126420.52      1714.8832     -128135.41      4.686897     
    133000   133            3819.7394     -1979635.2      38190.418     -126339.46      1727.5965     -128067.05      4.686897     
    134000   134            3767.2133     -1989126.8      38190.418     -126422.55      1703.8399     -128126.39      4.686897     
    135000   135            3859.9302     -1982716.2      38190.418     -126347.01      1745.774      -128092.79      4.686897     
    136000   136            3699.2393     -1978348.9      38190.418     -126374.11      1673.0966     -128047.21      4.686897     
    137000   137            3865.2779     -1977500.6      38190.418     -126327.89      1748.1927     -128076.08      4.686897     
    138000   138            3754.6935     -1986641.5      38190.418     -126415.86      1698.1775     -128114.04      4.686897     
    139000   139            3689.3329     -1979391.7      38190.418     -126407.13      1668.6161     -128075.75      4.686897     
    140000   140            3759.8077     -1982113.7      38190.418     -126390.92      1700.4905     -128091.41      4.686897     
    141000   141            3772.1423     -1989800.6      38190.418     -126441.5       1706.0692     -128147.57      4.686897     
    142000   142            3867.0787     -1988108.7      38190.418     -126377.42      1749.0072     -128126.42      4.686897     
    143000   143            3800.2256     -1991731.8      38190.418     -126437.12      1718.7708     -128155.89      4.686897     
    144000   144            3739.6561     -1985997.5      38190.418     -126403.36      1691.3763     -128094.74      4.686897     
    145000   145            3728.9842     -1984989.4      38190.418     -126434.08      1686.5496     -128120.63      4.686897     
    146000   146            3762.0824     -1985537.2      38190.418     -126404.46      1701.5193     -128105.98      4.686897     
    147000   147            3770.3144     -1995399.7      38190.418     -126461.42      1705.2425     -128166.66      4.686897     
    148000   148            3799.938      -1981932        38190.418     -126397.27      1718.6407     -128115.91      4.686897     
    149000   149            3753.0019     -1979483.9      38190.418     -126387.76      1697.4124     -128085.18      4.686897     
    150000   150            3696.3501     -1989325.5      38190.418     -126441.31      1671.7898     -128113.1       4.686897     
    151000   151            3819.1723     -1992297.4      38190.418     -126414.1       1727.34       -128141.44      4.686897     
    152000   152            3709.4907     -1994529.7      38190.418     -126489.33      1677.7331     -128167.06      4.686897     
    153000   153            3775.7557     -1989398.9      38190.418     -126436.26      1707.7035     -128143.96      4.686897     
    154000   154            3721.8098     -1988426.8      38190.418     -126459.31      1683.3048     -128142.61      4.686897     
    155000   155            3696.4114     -1994410.4      38190.418     -126471.45      1671.8175     -128143.27      4.686897     
    156000   156            3710.6798     -1997975.6      38190.418     -126510.26      1678.2709     -128188.54      4.686897     
    157000   157            3682.9881     -1987918.7      38190.418     -126463.47      1665.7465     -128129.21      4.686897     
    158000   158            3582.8957     -1995980.7      38190.418     -126548.47      1620.4765     -128168.94      4.686897     
    159000   159            3750.7985     -1995257        38190.418     -126469.31      1696.4158     -128165.73      4.686897     
    160000   160            3643.0648     -1995839.1      38190.418     -126513.24      1647.6899     -128160.93      4.686897     
    161000   161            3676.5402     -1996448.5      38190.418     -126517.82      1662.8302     -128180.65      4.686897     
    162000   162            3744.0307     -1989119.5      38190.418     -126451.83      1693.3549     -128145.19      4.686897     
    163000   163            3670.2565     -1994492.8      38190.418     -126513.89      1659.9882     -128173.88      4.686897     
    164000   164            3663.0903     -1992024.7      38190.418     -126473.91      1656.747      -128130.66      4.686897     
    165000   165            3634.107      -1999232.8      38190.418     -126543.21      1643.6384     -128186.84      4.686897     
    166000   166            3672.4712     -1994642.4      38190.418     -126491.82      1660.9898     -128152.81      4.686897     
    167000   167            3607.5175     -2001190.7      38190.418     -126569.01      1631.6125     -128200.62      4.686897     
    168000   168            3700.8146     -1993428.4      38190.418     -126490.39      1673.809      -128164.2       4.686897     
    169000   169            3691.6759     -2000903.4      38190.418     -126534.75      1669.6758     -128204.43      4.686897     
    170000   170            3716.7657     -1995709.6      38190.418     -126499.3       1681.0234     -128180.32      4.686897     
    171000   171            3633.1467     -1994573.8      38190.418     -126510.11      1643.2041     -128153.31      4.686897     
    172000   172            3647.8313     -2001124.7      38190.418     -126565.26      1649.8457     -128215.1       4.686897     
    173000   173            3619.7223     -2004206.8      38190.418     -126580.05      1637.1325     -128217.19      4.686897     
    174000   174            3637.4946     -1995089        38190.418     -126519.05      1645.1706     -128164.22      4.686897     
    175000   175            3546.122      -2002718.4      38190.418     -126598.84      1603.8445     -128202.68      4.686897     
    176000   176            3602.4305     -2001309        38190.418     -126559.9       1629.3117     -128189.21      4.686897     
    177000   177            3598.7243     -2000482.3      38190.418     -126563.17      1627.6355     -128190.81      4.686897     
    178000   178            3638.5521     -2001592.3      38190.418     -126549.26      1645.6489     -128194.91      4.686897     
    179000   179            3615.1183     -1996592.2      38190.418     -126524.28      1635.0502     -128159.33      4.686897     
    180000   180            3555.4556     -2002633.1      38190.418     -126595.56      1608.0659     -128203.62      4.686897     
    181000   181            3644.8869     -1998920.2      38190.418     -126551.09      1648.514      -128199.6       4.686897     
    182000   182            3521.7878     -2003514.1      38190.418     -126623.05      1592.8386     -128215.88      4.686897     
    183000   183            3559.0534     -2001816.5      38190.418     -126574.88      1609.6931     -128184.57      4.686897     
    184000   184            3558.2737     -2005985        38190.418     -126624.47      1609.3405     -128233.81      4.686897     
    185000   185            3613.5458     -2001915        38190.418     -126565.59      1634.339      -128199.93      4.686897     
    186000   186            3535.8743     -2004793.9      38190.418     -126612.36      1599.2096     -128211.57      4.686897     
    187000   187            3605.1662     -1998088.7      38190.418     -126551.92      1630.5491     -128182.47      4.686897     
    188000   188            3554.1559     -1999649.3      38190.418     -126584.59      1607.4781     -128192.07      4.686897     
    189000   189            3543.2548     -2008383.7      38190.418     -126635.66      1602.5477     -128238.21      4.686897     
    190000   190            3549.7751     -2001787.9      38190.418     -126598.32      1605.4967     -128203.82      4.686897     
    191000   191            3503.8112     -2010063.4      38190.418     -126662.52      1584.7081     -128247.23      4.686897     
    192000   192            3572.3297     -2006846.7      38190.418     -126626.47      1615.6977     -128242.17      4.686897     
    193000   193            3514.0979     -1996759.7      38190.418     -126597.51      1589.3606     -128186.88      4.686897     
    194000   194            3539.6552     -2009398.7      38190.418     -126652.05      1600.9197     -128252.97      4.686897     
    195000   195            3553.0306     -2005556.8      38190.418     -126623.15      1606.9691     -128230.12      4.686897     
    196000   196            3459.6115     -2005055.5      38190.418     -126650.15      1564.7174     -128214.87      4.686897     
    197000   197            3416.987      -2008054.4      38190.418     -126691.71      1545.4391     -128237.15      4.686897     
    198000   198            3594.0465     -2005991.5      38190.418     -126616.54      1625.5198     -128242.06      4.686897     
    199000   199            3507.3554     -2008284.7      38190.418     -126655.41      1586.3111     -128241.72      4.686897     
    200000   200            3505.5648     -2005275.3      38190.418     -126652.58      1585.5012     -128238.08      4.686897     
    201000   201            3468.6173     -2011482.1      38190.418     -126680.32      1568.7906     -128249.11      4.686897     
    202000   202            3471.5576     -1999169.2      38190.418     -126635.44      1570.1204     -128205.56      4.686897     
    203000   203            3462.9694     -2010986.2      38190.418     -126694.62      1566.2361     -128260.85      4.686897     
    204000   204            3490.4874     -2009596.8      38190.418     -126682.6       1578.682      -128261.28      4.686897     
    205000   205            3414.0542     -2007222        38190.418     -126682.36      1544.1127     -128226.48      4.686897     
    206000   206            3499.1464     -2009868.5      38190.418     -126665.95      1582.5983     -128248.54      4.686897     
    207000   207            3462.8344     -2009887.4      38190.418     -126684.88      1566.1751     -128251.05      4.686897     
    208000   208            3469.5087     -2015798.5      38190.418     -126719.19      1569.1937     -128288.38      4.686897     
    209000   209            3444.2162     -2008427.6      38190.418     -126670.94      1557.7544     -128228.7       4.686897     
    210000   210            3431.681      -2009471.8      38190.418     -126689.49      1552.085      -128241.58      4.686897     
    211000   211            3340.27       -2012927.5      38190.418     -126746.7       1510.7415     -128257.44      4.686897     
    212000   212            3442.8844     -2017222        38190.418     -126738.73      1557.152      -128295.88      4.686897     
    213000   213            3460.6394     -2009354.4      38190.418     -126669.6       1565.1823     -128234.78      4.686897     
    214000   214            3451.9783     -2016098.7      38190.418     -126736.72      1561.265      -128297.98      4.686897     
    215000   215            3377.7307     -2012382.5      38190.418     -126728.11      1527.6842     -128255.79      4.686897     
    216000   216            3502.3415     -2019258.2      38190.418     -126724.03      1584.0434     -128308.08      4.686897     
    217000   217            3346.6916     -2015307.1      38190.418     -126755.15      1513.6459     -128268.8       4.686897     
    218000   218            3433.8249     -2013171.1      38190.418     -126716.01      1553.0546     -128269.06      4.686897     
    219000   219            3374.5306     -2019750.8      38190.418     -126786.02      1526.2369     -128312.26      4.686897     
    220000   220            3373.188      -2015303.8      38190.418     -126751.78      1525.6297     -128277.41      4.686897     
    221000   221            3314.7631     -2021486.3      38190.418     -126801.5       1499.2052     -128300.71      4.686897     
    222000   222            3431.0653     -2018957.7      38190.418     -126756.86      1551.8065     -128308.67      4.686897     
    223000   223            3414.0115     -2013729.9      38190.418     -126722.65      1544.0934     -128266.75      4.686897     
    224000   224            3358.7718     -2019302.3      38190.418     -126791         1519.1095     -128310.11      4.686897     
    225000   225            3396.9903     -2016949.6      38190.418     -126768.47      1536.395      -128304.87      4.686897     
    226000   226            3373.9021     -2011904.8      38190.418     -126744.86      1525.9526     -128270.82      4.686897     
    227000   227            3319.0047     -2019818.7      38190.418     -126801.38      1501.1236     -128302.51      4.686897     
    228000   228            3317.877      -2022742.5      38190.418     -126819.91      1500.6136     -128320.53      4.686897     
    229000   229            3313.6713     -2019410.4      38190.418     -126818.62      1498.7114     -128317.34      4.686897     
    230000   230            3430.4339     -2014492.4      38190.418     -126727.76      1551.5209     -128279.28      4.686897     
    231000   231            3331.0738     -2024146.6      38190.418     -126823.78      1506.5822     -128330.36      4.686897     
    232000   232            3381.426      -2016148.2      38190.418     -126759.64      1529.3556     -128289         4.686897     
    233000   233            3396.2651     -2019116.1      38190.418     -126788.82      1536.067      -128324.89      4.686897     
    234000   234            3363.1867     -2021146.4      38190.418     -126812.25      1521.1063     -128333.36      4.686897     
    235000   235            3317.7514     -2026494.7      38190.418     -126863.87      1500.5568     -128364.43      4.686897     
    236000   236            3309.7195     -2024596.4      38190.418     -126844.26      1496.9241     -128341.19      4.686897     
    237000   237            3311.0408     -2018022.7      38190.418     -126794.45      1497.5217     -128291.97      4.686897     
    238000   238            3292.7524     -2028890.5      38190.418     -126862.2       1489.2502     -128351.45      4.686897     
    239000   239            3270.7574     -2029324        38190.418     -126886.09      1479.3022     -128365.39      4.686897     
    240000   240            3270.4165     -2024138.3      38190.418     -126839.24      1479.148      -128318.39      4.686897     
    241000   241            3184.4975     -2027909.3      38190.418     -126899.43      1440.2885     -128339.71      4.686897     
    242000   242            3308.1787     -2026802.5      38190.418     -126844.07      1496.2272     -128340.3       4.686897     
    243000   243            3227.3849     -2028248.8      38190.418     -126888.44      1459.6857     -128348.12      4.686897     
    244000   244            3257.4399     -2025012.4      38190.418     -126863.76      1473.279      -128337.03      4.686897     
    245000   245            3238.643      -2024840.7      38190.418     -126872.57      1464.7775     -128337.35      4.686897     
    246000   246            3260.2429     -2023015.9      38190.418     -126850.42      1474.5467     -128324.96      4.686897     
    247000   247            3345.7165     -2030659.6      38190.418     -126849.41      1513.2048     -128362.62      4.686897     
    248000   248            3327.5918     -2032094        38190.418     -126885.46      1505.0074     -128390.47      4.686897     
    249000   249            3278.0786     -2028871.6      38190.418     -126879.88      1482.6135     -128362.49      4.686897     
    250000   250            3300.4852     -2031117.8      38190.418     -126903.94      1492.7475     -128396.69      4.686897     
    251000   251            3253.7217     -2026921.8      38190.418     -126866.24      1471.5973     -128337.84      4.686897     
    252000   252            3172.4652     -2031353.9      38190.418     -126928.14      1434.8465     -128362.99      4.686897     
    253000   253            3288.779      -2028260        38190.418     -126865.81      1487.4531     -128353.26      4.686897     
    254000   254            3277.7462     -2035482.9      38190.418     -126917.18      1482.4631     -128399.65      4.686897     
    255000   255            3240.5513     -2033741.3      38190.418     -126924.51      1465.6406     -128390.15      4.686897     
    256000   256            3227.9139     -2029548.9      38190.418     -126900.52      1459.9249     -128360.44      4.686897     
    257000   257            3288.0881     -2038605.9      38190.418     -126931.55      1487.1406     -128418.69      4.686897     
    258000   258            3109.4583     -2033062.2      38190.418     -126963.8       1406.3497     -128370.15      4.686897     
    259000   259            3216.8819     -2028932.8      38190.418     -126902.9       1454.9354     -128357.83      4.686897     
    260000   260            3183.1448     -2028350.6      38190.418     -126912.51      1439.6767     -128352.18      4.686897     
    261000   261            3135.8053     -2031460.2      38190.418     -126958.84      1418.2659     -128377.11      4.686897     
    262000   262            3269.1399     -2035063.1      38190.418     -126917.14      1478.5707     -128395.72      4.686897     
    263000   263            3162.6745     -2033511.6      38190.418     -126954.43      1430.4184     -128384.85      4.686897     
    264000   264            3168.2584     -2032281.3      38190.418     -126955.45      1432.9439     -128388.39      4.686897     
    265000   265            3212.7315     -2035064.3      38190.418     -126950.56      1453.0582     -128403.62      4.686897     
    266000   266            3199.1867     -2034721.4      38190.418     -126943.28      1446.9321     -128390.22      4.686897     
    267000   267            3119.1374     -2038176.3      38190.418     -126990.79      1410.7273     -128401.52      4.686897     
    268000   268            3117.7191     -2040983.5      38190.418     -126995.14      1410.0859     -128405.23      4.686897     
    269000   269            3122.6233     -2031877.9      38190.418     -126965.77      1412.3039     -128378.07      4.686897     
    270000   270            3129.1965     -2039369        38190.418     -126994.31      1415.2769     -128409.59      4.686897     
    271000   271            3195.0605     -2038147.6      38190.418     -126984         1445.066      -128429.07      4.686897     
    272000   272            3107.6198     -2049314        38190.418     -127065.65      1405.5182     -128471.17      4.686897     
    273000   273            3091.8695     -2036167.2      38190.418     -126991.58      1398.3946     -128389.97      4.686897     
    274000   274            3092.38       -2043114.7      38190.418     -127049.13      1398.6255     -128447.75      4.686897     
    275000   275            3120.0123     -2036675.2      38190.418     -127003.57      1411.123      -128414.7       4.686897     
    276000   276            3071.4078     -2038800.4      38190.418     -127024.21      1389.1402     -128413.35      4.686897     
    277000   277            3073.7277     -2039532.2      38190.418     -127016.8       1390.1894     -128406.99      4.686897     
    278000   278            3066.7478     -2040623.5      38190.418     -127031.96      1387.0325     -128418.99      4.686897     
    279000   279            3116.8287     -2045366.7      38190.418     -127048.73      1409.6832     -128458.41      4.686897     
    280000   280            3119.781      -2034481.2      38190.418     -126981.81      1411.0184     -128392.82      4.686897     
    281000   281            3073.2817     -2045868        38190.418     -127052.66      1389.9877     -128442.64      4.686897     
    282000   282            3047.6845     -2042833.5      38190.418     -127043.3       1378.4106     -128421.71      4.686897     
    283000   283            2986.9251     -2041242.3      38190.418     -127069.91      1350.9302     -128420.84      4.686897     
    284000   284            3048.0638     -2041394        38190.418     -127047.28      1378.5821     -128425.86      4.686897     
    285000   285            3080.7664     -2045159.5      38190.418     -127059.49      1393.3729     -128452.87      4.686897     
    286000   286            3070.5016     -2044664        38190.418     -127039.03      1388.7303     -128427.76      4.686897     
    287000   287            3029.9626     -2044723.7      38190.418     -127076.47      1370.3952     -128446.86      4.686897     
    288000   288            3010.8509     -2045386.4      38190.418     -127085.88      1361.7514     -128447.63      4.686897     
    289000   289            3014.3936     -2047556.3      38190.418     -127100.69      1363.3537     -128464.05      4.686897     
    290000   290            3078.0337     -2047362.1      38190.418     -127073.16      1392.1369     -128465.3       4.686897     
    291000   291            3047.1593     -2045241.3      38190.418     -127079.05      1378.173      -128457.22      4.686897     
    292000   292            2967.7603     -2050395.1      38190.418     -127130.95      1342.2623     -128473.21      4.686897     
    293000   293            3045.3776     -2047541.8      38190.418     -127075.94      1377.3672     -128453.31      4.686897     
    294000   294            2901.7302     -2047116.6      38190.418     -127137.79      1312.3982     -128450.18      4.686897     
    295000   295            3011.7588     -2046968.6      38190.418     -127106.7       1362.162      -128468.86      4.686897     
    296000   296            3076.0065     -2046608.8      38190.418     -127066.48      1391.22       -128457.7       4.686897     
    297000   297            3001.4821     -2045231.7      38190.418     -127104.67      1357.5141     -128462.18      4.686897     
    298000   298            3010.6865     -2045952        38190.418     -127095.44      1361.677      -128457.12      4.686897     
    299000   299            3057.2901     -2053909.5      38190.418     -127123.21      1382.755      -128505.97      4.686897     
    300000   300            3005.695      -2045851.4      38190.418     -127098.55      1359.4195     -128457.97      4.686897     
    301000   301            3023.708      -2054253.5      38190.418     -127140.56      1367.5664     -128508.13      4.686897     
    302000   302            2949.4384     -2050462.3      38190.418     -127150.26      1333.9757     -128484.23      4.686897     
    303000   303            3044.1754     -2050858.9      38190.418     -127110.29      1376.8235     -128487.11      4.686897     
    304000   304            2955.5594     -2052668.2      38190.418     -127143.73      1336.7441     -128480.48      4.686897     
    305000   305            2944.1672     -2049178.4      38190.418     -127137.75      1331.5916     -128469.34      4.686897     
    306000   306            3000.6441     -2051302.2      38190.418     -127139.28      1357.135      -128496.42      4.686897     
    307000   307            2947.0533     -2056302.1      38190.418     -127181.78      1332.8969     -128514.67      4.686897     
    308000   308            2877.9508     -2051933.3      38190.418     -127193.1       1301.6432     -128494.75      4.686897     
    309000   309            2965.7045     -2053430.2      38190.418     -127159.77      1341.3325     -128501.1       4.686897     
    310000   310            2938.081      -2058201.2      38190.418     -127189.47      1328.8389     -128518.31      4.686897     
    311000   311            2954.5514     -2054000.8      38190.418     -127168.43      1336.2882     -128504.72      4.686897     
    312000   312            2818.4153     -2062724.8      38190.418     -127268.37      1274.7164     -128543.08      4.686897     
    313000   313            2944.4759     -2053668.9      38190.418     -127174.39      1331.7312     -128506.12      4.686897     
    314000   314            2858.0613     -2060325.9      38190.418     -127243.68      1292.6475     -128536.32      4.686897     
    315000   315            2983.2245     -2054746.8      38190.418     -127159.49      1349.2565     -128508.74      4.686897     
    316000   316            2890.9293     -2052327.7      38190.418     -127178.45      1307.5131     -128485.96      4.686897     
    317000   317            2878.216      -2057400.8      38190.418     -127212.82      1301.7631     -128514.59      4.686897     
    318000   318            3003.6147     -2058987.2      38190.418     -127178.08      1358.4786     -128536.56      4.686897     
    319000   319            2862.6993     -2058770.6      38190.418     -127235.37      1294.7452     -128530.11      4.686897     
    320000   320            2923.1992     -2058361.6      38190.418     -127190.69      1322.1082     -128512.8       4.686897     
    321000   321            2932.3718     -2060747        38190.418     -127217.52      1326.2568     -128543.78      4.686897     
    322000   322            2903.2758     -2054936.9      38190.418     -127186.5       1313.0972     -128499.59      4.686897     
    323000   323            2908.7642     -2058548.6      38190.418     -127208.86      1315.5795     -128524.44      4.686897     
    324000   324            2912.9013     -2061116.6      38190.418     -127237.56      1317.4506     -128555.01      4.686897     
    325000   325            2894.0542     -2058244.2      38190.418     -127212.87      1308.9264     -128521.8       4.686897     
    326000   326            2880.8889     -2060144.7      38190.418     -127246.39      1302.972      -128549.36      4.686897     
    327000   327            2880.1389     -2060984.2      38190.418     -127230.19      1302.6328     -128532.82      4.686897     
    328000   328            2948.5575     -2056814.1      38190.418     -127200.21      1333.5773     -128533.79      4.686897     
    329000   329            2798.8312     -2059476.6      38190.418     -127263.52      1265.8589     -128529.38      4.686897     
    330000   330            2874.6337     -2054561        38190.418     -127192.71      1300.1429     -128492.86      4.686897     
    331000   331            2805.7052     -2058934.6      38190.418     -127265.1       1268.9678     -128534.07      4.686897     
    332000   332            2850.1423     -2068706.6      38190.418     -127299.73      1289.0659     -128588.79      4.686897     
    333000   333            2846.7091     -2061118.8      38190.418     -127265.25      1287.5131     -128552.76      4.686897     
    334000   334            2805.8656     -2064995.6      38190.418     -127296.98      1269.0404     -128566.02      4.686897     
    335000   335            2841.9278     -2063906.3      38190.418     -127285.51      1285.3506     -128570.86      4.686897     
    336000   336            2849.7168     -2056892.3      38190.418     -127233.12      1288.8735     -128521.99      4.686897     
    337000   337            2771.6501     -2063348.6      38190.418     -127288.42      1253.5654     -128541.98      4.686897     
    338000   338            2809.4762     -2067806.6      38190.418     -127324.05      1270.6734     -128594.72      4.686897     
    339000   339            2786.9256     -2066312.1      38190.418     -127307.09      1260.4742     -128567.56      4.686897     
    340000   340            2803.2619     -2062867.6      38190.418     -127289.16      1267.8628     -128557.02      4.686897     
    341000   341            2764.5167     -2066578.3      38190.418     -127325.78      1250.3391     -128576.12      4.686897     
    342000   342            2815.7795     -2068339.4      38190.418     -127315.95      1273.5242     -128589.47      4.686897     
    343000   343            2784.4471     -2066547.1      38190.418     -127307.75      1259.3532     -128567.11      4.686897     
    344000   344            2744.7105     -2071939.1      38190.418     -127365.51      1241.3811     -128606.89      4.686897     
    345000   345            2752.587      -2068664.3      38190.418     -127329.22      1244.9435     -128574.16      4.686897     
    346000   346            2776.4635     -2070648.4      38190.418     -127334.07      1255.7424     -128589.81      4.686897     
    347000   347            2768.9033     -2070769.3      38190.418     -127341.72      1252.323      -128594.04      4.686897     
    348000   348            2794.51       -2067151.1      38190.418     -127311.06      1263.9045     -128574.97      4.686897     
    349000   349            2724.2514     -2067767.3      38190.418     -127343.19      1232.1278     -128575.32      4.686897     
    350000   350            2730.3302     -2067014.5      38190.418     -127340.65      1234.8771     -128575.53      4.686897     
    351000   351            2710.3967     -2068248.6      38190.418     -127356.41      1225.8616     -128582.27      4.686897     
    352000   352            2739.1744     -2071381.4      38190.418     -127363.63      1238.8772     -128602.5       4.686897     
    353000   353            2737.1776     -2071386.9      38190.418     -127363.73      1237.9741     -128601.71      4.686897     
    354000   354            2680.3378     -2071533.4      38190.418     -127388.19      1212.2665     -128600.46      4.686897     
    355000   355            2752.9986     -2072477        38190.418     -127354.25      1245.1297     -128599.38      4.686897     
    356000   356            2719.6098     -2078290.3      38190.418     -127401.03      1230.0285     -128631.06      4.686897     
    357000   357            2733.6077     -2072483.8      38190.418     -127376.26      1236.3595     -128612.62      4.686897     
    358000   358            2679.5349     -2076902.1      38190.418     -127423.5       1211.9034     -128635.4       4.686897     
    359000   359            2739.9327     -2074248.6      38190.418     -127377.78      1239.2202     -128617         4.686897     
    360000   360            2638.0128     -2079118.4      38190.418     -127438.92      1193.1237     -128632.05      4.686897     
    361000   361            2702.5639     -2073435.7      38190.418     -127390.66      1222.319      -128612.98      4.686897     
    362000   362            2652.6763     -2077103.7      38190.418     -127439.1       1199.7557     -128638.86      4.686897     
    363000   363            2635.6758     -2070688.6      38190.418     -127397.75      1192.0668     -128589.81      4.686897     
    364000   364            2671.0639     -2077114.9      38190.418     -127414.24      1208.0721     -128622.31      4.686897     
    365000   365            2695.8347     -2075915.3      38190.418     -127401.84      1219.2755     -128621.11      4.686897     
    366000   366            2652.0566     -2071818.4      38190.418     -127387.5       1199.4755     -128586.98      4.686897     
    367000   367            2703.4408     -2078565.1      38190.418     -127416.9       1222.7156     -128639.61      4.686897     
    368000   368            2688.9388     -2077206.4      38190.418     -127412.71      1216.1566     -128628.87      4.686897     
    369000   369            2660.6233     -2079205.6      38190.418     -127456.64      1203.35       -128659.99      4.686897     
    370000   370            2649.2211     -2075438.5      38190.418     -127417.72      1198.193      -128615.91      4.686897     
    371000   371            2616.5815     -2074595.4      38190.418     -127448.74      1183.4307     -128632.17      4.686897     
    372000   372            2682.7078     -2077387.6      38190.418     -127424.73      1213.3384     -128638.07      4.686897     
    373000   373            2637.9825     -2080406.7      38190.418     -127459.48      1193.11       -128652.59      4.686897     
    374000   374            2715.8865     -2080254.6      38190.418     -127423.73      1228.3445     -128652.08      4.686897     
    375000   375            2600.604      -2079416.2      38190.418     -127474.59      1176.2044     -128650.79      4.686897     
    376000   376            2654.1009     -2077254.2      38190.418     -127444.95      1200.4001     -128645.35      4.686897     
    377000   377            2603.2626     -2081174.4      38190.418     -127482.31      1177.4069     -128659.72      4.686897     
    378000   378            2690.3223     -2079899.6      38190.418     -127433.2       1216.7823     -128649.99      4.686897     
    379000   379            2605.3178     -2081532.2      38190.418     -127473.33      1178.3364     -128651.66      4.686897     
    380000   380            2648.1269     -2082195.7      38190.418     -127458.9       1197.6981     -128656.6       4.686897     
    381000   381            2637.2419     -2081859.1      38190.418     -127470.73      1192.7751     -128663.51      4.686897     
    382000   382            2569.944      -2087284.2      38190.418     -127527.58      1162.3375     -128689.91      4.686897     
    383000   383            2602.1182     -2084227.8      38190.418     -127503.55      1176.8893     -128680.44      4.686897     
    384000   384            2585.0278     -2086063.1      38190.418     -127523.67      1169.1596     -128692.83      4.686897     
    385000   385            2594.1054     -2081449.9      38190.418     -127482.22      1173.2652     -128655.48      4.686897     
    386000   386            2539.7621     -2081389        38190.418     -127488.27      1148.6868     -128636.96      4.686897     
    387000   387            2530.1494     -2089345.7      38190.418     -127552.16      1144.3391     -128696.5       4.686897     
    388000   388            2537.6361     -2084580        38190.418     -127520.27      1147.7252     -128668         4.686897     
    389000   389            2534.3537     -2087224.9      38190.418     -127537.99      1146.2407     -128684.23      4.686897     
    390000   390            2524.7715     -2087537.7      38190.418     -127547.16      1141.9068     -128689.07      4.686897     
    391000   391            2636.2479     -2085140.1      38190.418     -127487.96      1192.3255     -128680.28      4.686897     
    392000   392            2528.0095     -2089844.1      38190.418     -127558.21      1143.3713     -128701.58      4.686897     
    393000   393            2608.2129     -2083666.2      38190.418     -127507.02      1179.6458     -128686.66      4.686897     
    394000   394            2514.6599     -2090423.4      38190.418     -127572.86      1137.3335     -128710.2       4.686897     
    395000   395            2497.1955     -2085383.8      38190.418     -127544.73      1129.4347     -128674.16      4.686897     
    396000   396            2477.939      -2089082.7      38190.418     -127568.47      1120.7254     -128689.19      4.686897     
    397000   397            2507.6327     -2086215.6      38190.418     -127553.05      1134.1552     -128687.2       4.686897     
    398000   398            2522.9809     -2089161        38190.418     -127563.45      1141.0969     -128704.55      4.686897     
    399000   399            2496.3899     -2092929.7      38190.418     -127591.75      1129.0704     -128720.82      4.686897     
    400000   400            2559.5741     -2086459.4      38190.418     -127529.16      1157.6474     -128686.8       4.686897     
    401000   401            2494.4936     -2093476.2      38190.418     -127594.53      1128.2127     -128722.75      4.686897     
    402000   402            2535.5178     -2085451.5      38190.418     -127545.33      1146.7671     -128692.1       4.686897     
    403000   403            2482.5413     -2088963.6      38190.418     -127576.62      1122.8069     -128699.42      4.686897     
    404000   404            2535.1936     -2089027.5      38190.418     -127567.85      1146.6205     -128714.47      4.686897     
    405000   405            2473.9062     -2096346        38190.418     -127633.64      1118.9014     -128752.55      4.686897     
    406000   406            2480.3346     -2090030.2      38190.418     -127586.35      1121.8088     -128708.16      4.686897     
    407000   407            2444.3495     -2091948.4      38190.418     -127613.31      1105.5334     -128718.84      4.686897     
    408000   408            2426.2069     -2094524.9      38190.418     -127631.54      1097.3279     -128728.87      4.686897     
    409000   409            2488.3663     -2090301.2      38190.418     -127592.6       1125.4414     -128718.04      4.686897     
    410000   410            2479.9742     -2093914.1      38190.418     -127612.09      1121.6458     -128733.73      4.686897     
    411000   411            2426.625      -2094638.6      38190.418     -127645.86      1097.517      -128743.38      4.686897     
    412000   412            2389.0926     -2095642.5      38190.418     -127648.45      1080.5418     -128728.99      4.686897     
    413000   413            2454.7364     -2095160.3      38190.418     -127631.66      1110.2312     -128741.89      4.686897     
    414000   414            2399.0873     -2101085.6      38190.418     -127681.21      1085.0622     -128766.27      4.686897     
    415000   415            2437.0975     -2099455.8      38190.418     -127653.77      1102.2535     -128756.02      4.686897     
    416000   416            2515.7105     -2098009.9      38190.418     -127623.43      1137.8087     -128761.24      4.686897     
    417000   417            2444.4185     -2098268.8      38190.418     -127655.28      1105.5646     -128760.84      4.686897     
    418000   418            2445.2595     -2097182.1      38190.418     -127646.6       1105.945      -128752.54      4.686897     
    419000   419            2437.3457     -2097890.4      38190.418     -127646.15      1102.3657     -128748.52      4.686897     
    420000   420            2406.1119     -2101221        38190.418     -127673.54      1088.2393     -128761.78      4.686897     
    421000   421            2362.8987     -2100214.3      38190.418     -127689.43      1068.6948     -128758.13      4.686897     
    422000   422            2448.9872     -2098883.2      38190.418     -127646.4       1107.631      -128754.03      4.686897     
    423000   423            2350.7281     -2101118.5      38190.418     -127705.91      1063.1902     -128769.1       4.686897     
    424000   424            2421.3624     -2101000.7      38190.418     -127676.07      1095.1368     -128771.21      4.686897     
    425000   425            2308.1321     -2102606.7      38190.418     -127723.34      1043.9249     -128767.26      4.686897     
    426000   426            2433.711      -2100924.1      38190.418     -127678.39      1100.7219     -128779.11      4.686897     
    427000   427            2329.1704     -2104053.1      38190.418     -127734.43      1053.4401     -128787.87      4.686897     
    428000   428            2327.7429     -2097284.7      38190.418     -127697.34      1052.7945     -128750.14      4.686897     
    429000   429            2374.3687     -2105016        38190.418     -127718.38      1073.8824     -128792.27      4.686897     
    430000   430            2413.4779     -2101759.2      38190.418     -127688.71      1091.5708     -128780.28      4.686897     
    431000   431            2354.0302     -2104757.8      38190.418     -127720.47      1064.6837     -128785.15      4.686897     
    432000   432            2360.7183     -2100904.7      38190.418     -127694.22      1067.7086     -128761.93      4.686897     
    433000   433            2312.7282     -2103446.9      38190.418     -127737.68      1046.0036     -128783.69      4.686897     
    434000   434            2277.6809     -2103569.2      38190.418     -127761.63      1030.1524     -128791.79      4.686897     
    435000   435            2319.8346     -2103186.3      38190.418     -127731.45      1049.2177     -128780.67      4.686897     
    436000   436            2309.8048     -2107290.7      38190.418     -127763.97      1044.6814     -128808.65      4.686897     
    437000   437            2298.2768     -2106390.4      38190.418     -127747.01      1039.4675     -128786.47      4.686897     
    438000   438            2319.2517     -2108451.1      38190.418     -127759.28      1048.954      -128808.23      4.686897     
    439000   439            2354.6033     -2106779.9      38190.418     -127750.26      1064.9429     -128815.21      4.686897     
    440000   440            2288.1118     -2104991.8      38190.418     -127755.3       1034.8701     -128790.17      4.686897     
    441000   441            2332.5006     -2105068.8      38190.418     -127741.21      1054.9463     -128796.16      4.686897     
    442000   442            2271.7164     -2109551.4      38190.418     -127785.47      1027.4547     -128812.92      4.686897     
    443000   443            2368.0494     -2104754.6      38190.418     -127729.72      1071.0244     -128800.75      4.686897     
    444000   444            2260.4348     -2108796.7      38190.418     -127793.05      1022.3523     -128815.4       4.686897     
    445000   445            2306.735      -2108642.3      38190.418     -127769.78      1043.293      -128813.08      4.686897     
    446000   446            2300.3082     -2108522.6      38190.418     -127769.18      1040.3863     -128809.56      4.686897     
    447000   447            2261.414      -2110903.5      38190.418     -127808.82      1022.7951     -128831.61      4.686897     
    448000   448            2262.3265     -2111713.3      38190.418     -127813.82      1023.2078     -128837.02      4.686897     
    449000   449            2217.7752     -2111021.4      38190.418     -127802.06      1003.0581     -128805.12      4.686897     
    450000   450            2269.6066     -2111112.3      38190.418     -127809.83      1026.5005     -128836.33      4.686897     
    451000   451            2237.3416     -2109925.9      38190.418     -127814.64      1011.9076     -128826.54      4.686897     
    452000   452            2254.9913     -2115426        38190.418     -127837.51      1019.8903     -128857.4       4.686897     
    453000   453            2291.9312     -2107862.3      38190.418     -127774.83      1036.5975     -128811.43      4.686897     
    454000   454            2231.8809     -2111140        38190.418     -127819.54      1009.4379     -128828.98      4.686897     
    455000   455            2202.4036     -2115022.9      38190.418     -127852.71      996.10583     -128848.82      4.686897     
    456000   456            2249.4323     -2117890.5      38190.418     -127850.14      1017.376      -128867.52      4.686897     
    457000   457            2224.3933     -2112731.1      38190.418     -127826.67      1006.0514     -128832.72      4.686897     
    458000   458            2183.2936     -2116337.4      38190.418     -127874.78      987.46275     -128862.24      4.686897     
    459000   459            2217.1614     -2115895        38190.418     -127852.72      1002.7805     -128855.5       4.686897     
    460000   460            2242.3611     -2115749.5      38190.418     -127836.79      1014.1779     -128850.97      4.686897     
    461000   461            2150.8947     -2116355.1      38190.418     -127873.38      972.80935     -128846.18      4.686897     
    462000   462            2178.1179     -2115950.1      38190.418     -127859.35      985.12187     -128844.47      4.686897     
    463000   463            2168.874      -2114784.3      38190.418     -127864.74      980.94105     -128845.69      4.686897     
    464000   464            2142.4314     -2114907        38190.418     -127879.3       968.98153     -128848.28      4.686897     
    465000   465            2210.3233     -2114825.7      38190.418     -127847.63      999.68776     -128847.32      4.686897     
    466000   466            2147.6525     -2120520.8      38190.418     -127902.69      971.34293     -128874.04      4.686897     
    467000   467            2185.4043     -2122044.4      38190.418     -127902.88      988.41739     -128891.29      4.686897     
    468000   468            2133.7229     -2121670.3      38190.418     -127925.33      965.04284     -128890.37      4.686897     
    469000   469            2157.7569     -2118247.2      38190.418     -127887.45      975.91298     -128863.36      4.686897     
    470000   470            2097.5736     -2118797.5      38190.418     -127921.29      948.69322     -128869.99      4.686897     
    471000   471            2162.7896     -2119981.1      38190.418     -127901.54      978.18917     -128879.73      4.686897     
    472000   472            2125.6833     -2122345.4      38190.418     -127916.4       961.40671     -128877.8       4.686897     
    473000   473            2145.8801     -2114689.9      38190.418     -127879.13      970.54132     -128849.67      4.686897     
    474000   474            2104.7897     -2119707.3      38190.418     -127924.26      951.95693     -128876.22      4.686897     
    475000   475            2070.5587     -2122028.4      38190.418     -127948.06      936.47487     -128884.54      4.686897     
    476000   476            2118.0579     -2120464.2      38190.418     -127919.14      957.95786     -128877.1       4.686897     
    477000   477            2101.1519     -2126108.6      38190.418     -127953.8       950.31161     -128904.11      4.686897     
    478000   478            2129.5766     -2121664        38190.418     -127926.19      963.16755     -128889.36      4.686897     
    479000   479            2153.9958     -2120372.5      38190.418     -127910.52      974.21189     -128884.74      4.686897     
    480000   480            2073.2788     -2123292.9      38190.418     -127953.55      937.70511     -128891.26      4.686897     
    481000   481            2123.0973     -2120203.5      38190.418     -127919.8       960.23708     -128880.04      4.686897     
    482000   482            2126.3505     -2124278.2      38190.418     -127941.48      961.70846     -128903.19      4.686897     
    483000   483            2074.3526     -2125075.5      38190.418     -127969.39      938.19077     -128907.58      4.686897     
    484000   484            2044.9735     -2125596.4      38190.418     -127973.04      924.90315     -128897.94      4.686897     
    485000   485            2103.3851     -2125407        38190.418     -127952.61      951.32165     -128903.93      4.686897     
    486000   486            2038.7142     -2125003        38190.418     -127980.46      922.0722      -128902.53      4.686897     
    487000   487            2115.7332     -2123571.2      38190.418     -127952.15      956.90645     -128909.05      4.686897     
    488000   488            2013.5028     -2127346.7      38190.418     -128000.94      910.66957     -128911.61      4.686897     
    489000   489            2080.9435     -2121169.7      38190.418     -127946.52      941.17173     -128887.69      4.686897     
    490000   490            2080.4864     -2129218        38190.418     -127989.65      940.965       -128930.62      4.686897     
    491000   491            2030.2047     -2129944.3      38190.418     -128011.12      918.22351     -128929.35      4.686897     
    492000   492            2080.6999     -2128578.6      38190.418     -127989.28      941.06153     -128930.34      4.686897     
    493000   493            2042.6933     -2127019        38190.418     -128005.12      923.87187     -128928.99      4.686897     
    494000   494            1978.6874     -2131751.5      38190.418     -128037.38      894.9232      -128932.31      4.686897     
    495000   495            2039.8156     -2127607.2      38190.418     -127993.57      922.57034     -128916.14      4.686897     
    496000   496            1994.8632     -2130103.7      38190.418     -128019.14      902.23924     -128921.38      4.686897     
    497000   497            2037.237      -2128948.7      38190.418     -127998.27      921.40409     -128919.67      4.686897     
    498000   498            2005.0789     -2129703.2      38190.418     -128034.44      906.85961     -128941.3       4.686897     
    499000   499            2033.0834     -2135274.6      38190.418     -128054.52      919.52547     -128974.04      4.686897     
    500000   500            1986.5054     -2129775.4      38190.418     -128036.3       898.45914     -128934.76      4.686897     
    501000   501            1961.885      -2132997.5      38190.418     -128070.77      887.3238      -128958.09      4.686897     
    502000   502            2005.1971     -2132513.9      38190.418     -128037.09      906.91303     -128944.01      4.686897     
    503000   503            1970.6102     -2136311.1      38190.418     -128085.4       891.27005     -128976.67      4.686897     
    504000   504            2019.2417     -2132084        38190.418     -128035.58      913.26515     -128948.84      4.686897     
    505000   505            2001.0894     -2133869        38190.418     -128054.61      905.05519     -128959.67      4.686897     
    506000   506            1965.0286     -2132618.6      38190.418     -128054.66      888.74558     -128943.41      4.686897     
    507000   507            1984.4028     -2133979.3      38190.418     -128055.88      897.50816     -128953.39      4.686897     
    508000   508            1958.8951     -2137654.6      38190.418     -128085.92      885.9715      -128971.89      4.686897     
    509000   509            1976.4885     -2139830.8      38190.418     -128088.28      893.92867     -128982.21      4.686897     
    510000   510            1930.2738     -2132556        38190.418     -128066.62      873.02665     -128939.65      4.686897     
    511000   511            1908.1033     -2136572.7      38190.418     -128103.27      862.99936     -128966.27      4.686897     
    512000   512            1953.0475     -2134734.6      38190.418     -128077.87      883.32678     -128961.2       4.686897     
    513000   513            1917.8715     -2140342.3      38190.418     -128122.18      867.4173      -128989.6       4.686897     
    514000   514            1952.658      -2136347.8      38190.418     -128089.06      883.15061     -128972.22      4.686897     
    515000   515            1878.6576     -2141134.6      38190.418     -128143.97      849.68158     -128993.65      4.686897     
    516000   516            1954.633      -2137393.4      38190.418     -128096.92      884.04386     -128980.97      4.686897     
    517000   517            1891.1974     -2140533.2      38190.418     -128131.08      855.35313     -128986.44      4.686897     
    518000   518            1928.4165     -2137007.4      38190.418     -128093.55      872.18662     -128965.74      4.686897     
    519000   519            1871.8004     -2139851.6      38190.418     -128132.26      846.58022     -128978.84      4.686897     
    520000   520            1870.4815     -2140494.4      38190.418     -128144.37      845.98369     -128990.36      4.686897     
    521000   521            1900.7775     -2137939.8      38190.418     -128122.21      859.68601     -128981.9       4.686897     
    522000   522            1896.5397     -2142168.8      38190.418     -128151.87      857.76932     -129009.64      4.686897     
    523000   523            1895.8417     -2138466.7      38190.418     -128131.6       857.45363     -128989.06      4.686897     
    524000   524            1905.6418     -2140889.4      38190.418     -128126.4       861.88605     -128988.29      4.686897     
    525000   525            1893.7181     -2144936.2      38190.418     -128163.76      856.49318     -129020.25      4.686897     
    526000   526            1878.3731     -2144321.6      38190.418     -128164.07      849.55294     -129013.62      4.686897     
    527000   527            1840.984      -2140262        38190.418     -128158.69      832.64256     -128991.33      4.686897     
    528000   528            1832.0993     -2141602.3      38190.418     -128158.03      828.62414     -128986.65      4.686897     
    529000   529            1853.4279     -2147648.3      38190.418     -128188.9       838.2707      -129027.17      4.686897     
    530000   530            1818.8272     -2143968.3      38190.418     -128182.56      822.62145     -129005.18      4.686897     
    531000   531            1869.4406     -2145232.8      38190.418     -128170.74      845.51291     -129016.25      4.686897     
    532000   532            1842.2256     -2144737.3      38190.418     -128181.52      833.20407     -129014.72      4.686897     
    533000   533            1895.2384     -2147767.8      38190.418     -128182.53      857.1808      -129039.72      4.686897     
    534000   534            1818.5599     -2146417.9      38190.418     -128197.53      822.50054     -129020.03      4.686897     
    535000   535            1854.4811     -2145655.9      38190.418     -128182.52      838.74702     -129021.27      4.686897     
    536000   536            1778.8318     -2145704.9      38190.418     -128209.97      804.53225     -129014.5       4.686897     
    537000   537            1792.2553     -2146998.6      38190.418     -128209.42      810.60347     -129020.03      4.686897     
    538000   538            1818.9589     -2146209.9      38190.418     -128195.38      822.68098     -129018.06      4.686897     
    539000   539            1792.4141     -2148663        38190.418     -128220.56      810.6753      -129031.24      4.686897     
    540000   540            1825.4216     -2146874.7      38190.418     -128213.75      825.60396     -129039.36      4.686897     
    541000   541            1796.5402     -2146763        38190.418     -128220.88      812.54146     -129033.42      4.686897     
    542000   542            1829.0451     -2146206.3      38190.418     -128207.25      827.2428      -129034.49      4.686897     
    543000   543            1797.4063     -2149662.5      38190.418     -128241.58      812.93317     -129054.51      4.686897     
    544000   544            1810.3346     -2146020.4      38190.418     -128207.62      818.78041     -129026.4       4.686897     
    545000   545            1770.8693     -2152155.6      38190.418     -128250.23      800.93097     -129051.16      4.686897     
    546000   546            1791.8606     -2150419.4      38190.418     -128230.21      810.42495     -129040.63      4.686897     
    547000   547            1753.8929     -2151074.7      38190.418     -128254.22      793.25286     -129047.48      4.686897     
    548000   548            1765.9439     -2151677.6      38190.418     -128249.13      798.70329     -129047.83      4.686897     
    549000   549            1792.5397     -2149344.6      38190.418     -128231.91      810.73208     -129042.65      4.686897     
    550000   550            1738.7808     -2152794        38190.418     -128274.05      786.41797     -129060.47      4.686897     
    551000   551            1735.3076     -2150549.4      38190.418     -128258.19      784.8471      -129043.04      4.686897     
    552000   552            1722.9704     -2148914.9      38190.418     -128262.7       779.2672      -129041.97      4.686897     
    553000   553            1753.1331     -2150830.4      38190.418     -128266.69      792.90922     -129059.59      4.686897     
    554000   554            1733.8371     -2154941.6      38190.418     -128290.93      784.18201     -129075.12      4.686897     
    555000   555            1756.0992     -2154323        38190.418     -128280.87      794.25075     -129075.12      4.686897     
    556000   556            1748.0547     -2154190.4      38190.418     -128289.27      790.61238     -129079.88      4.686897     
    557000   557            1697.1953     -2153587.8      38190.418     -128294.51      767.60958     -129062.12      4.686897     
    558000   558            1715.2232     -2149756.3      38190.418     -128269.51      775.76327     -129045.27      4.686897     
    559000   559            1715.4696     -2155529.8      38190.418     -128302.27      775.87471     -129078.14      4.686897     
    560000   560            1665.6559     -2155326.5      38190.418     -128322.37      753.34492     -129075.71      4.686897     
    561000   561            1648.3056     -2157871.6      38190.418     -128342.6       745.49771     -129088.09      4.686897     
    562000   562            1699.6726     -2153791.4      38190.418     -128309.58      768.73005     -129078.31      4.686897     
    563000   563            1633.7836     -2157515.2      38190.418     -128342.34      738.92968     -129081.27      4.686897     
    564000   564            1709.9245     -2158617.2      38190.418     -128320.27      773.36677     -129093.64      4.686897     
    565000   565            1678.4537     -2158060        38190.418     -128338.25      759.13315     -129097.38      4.686897     
    566000   566            1656.6719     -2156593.9      38190.418     -128337.87      749.28165     -129087.15      4.686897     
    567000   567            1660.5139     -2155825.1      38190.418     -128315.68      751.01929     -129066.7       4.686897     
    568000   568            1667.404      -2161690.7      38190.418     -128361.11      754.13554     -129115.24      4.686897     
    569000   569            1671.0442     -2160304.8      38190.418     -128352.97      755.78196     -129108.76      4.686897     
    570000   570            1664.2225     -2157689.2      38190.418     -128338.03      752.69663     -129090.73      4.686897     
    571000   571            1653.9222     -2160871.2      38190.418     -128359.19      748.03798     -129107.22      4.686897     
    572000   572            1638.7039     -2156987.5      38190.418     -128354.04      741.15504     -129095.2       4.686897     
    573000   573            1620.3721     -2160082.3      38190.418     -128373.52      732.86389     -129106.39      4.686897     
    574000   574            1637.8486     -2163200.5      38190.418     -128379.09      740.76821     -129119.85      4.686897     
    575000   575            1613.9302     -2157734.3      38190.418     -128366.29      729.95036     -129096.24      4.686897     
    576000   576            1601.5535     -2160428.6      38190.418     -128383.5       724.35261     -129107.85      4.686897     
    577000   577            1611.3341     -2163328.7      38190.418     -128394.24      728.77621     -129123.01      4.686897     
    578000   578            1612.783      -2161609.3      38190.418     -128380.96      729.43149     -129110.4       4.686897     
    579000   579            1619.6642     -2163912        38190.418     -128391.7       732.54376     -129124.24      4.686897     
    580000   580            1596.9076     -2166284.9      38190.418     -128420.85      722.25135     -129143.1       4.686897     
    581000   581            1587.7605     -2163433.2      38190.418     -128407.88      718.11431     -129125.99      4.686897     
[...]
    782000   782            610.13242     -2245748.2      38190.418     -129316.12      275.95145     -129592.07      4.686897     
    783000   783            589.06704     -2246150.3      38190.418     -129325.86      266.42398     -129592.28      4.686897     
    784000   784            579.05644     -2246825.6      38190.418     -129335.75      261.89637     -129597.65      4.686897     
    785000   785            577.39098     -2247804.3      38190.418     -129339.38      261.14311     -129600.52      4.686897     
    786000   786            552.26147     -2249581.6      38190.418     -129358.42      249.77751     -129608.2       4.686897     
    787000   787            568.04865     -2248905.5      38190.418     -129347.56      256.91775     -129604.48      4.686897     
    788000   788            546.49603     -2249326.8      38190.418     -129360.13      247.1699      -129607.3       4.686897     
    789000   789            543.5677      -2249577.9      38190.418     -129365.59      245.84548     -129611.43      4.686897     
    790000   790            557.70017     -2249344.2      38190.418     -129357.23      252.23733     -129609.47      4.686897     
    791000   791            535.35397     -2250690.2      38190.418     -129375.33      242.13056     -129617.46      4.686897     
    792000   792            547.35182     -2249715.8      38190.418     -129366.81      247.55696     -129614.37      4.686897     
    793000   793            533.44169     -2250519.9      38190.418     -129377.84      241.26567     -129619.11      4.686897     
    794000   794            529.50608     -2251650.4      38190.418     -129379.11      239.48567     -129618.6       4.686897     
    795000   795            535.05644     -2251712.7      38190.418     -129381.83      241.99599     -129623.83      4.686897     
    796000   796            507.60167     -2251970.7      38190.418     -129393.21      229.57872     -129622.78      4.686897     
    797000   797            517.59131     -2253544.6      38190.418     -129398.68      234.09684     -129632.78      4.686897     
    798000   798            502.31937     -2253316.8      38190.418     -129401.82      227.18963     -129629.01      4.686897     
    799000   799            508.05628     -2252651.7      38190.418     -129399.72      229.78433     -129629.5       4.686897     
    800000   800            490.11816     -2252797.2      38190.418     -129408.32      221.67125     -129629.99      4.686897     
    801000   801            491.15624     -2254155        38190.418     -129411.93      222.14076     -129634.07      4.686897     
    802000   802            486.69226     -2254704.6      38190.418     -129418.19      220.12178     -129638.31      4.686897     
    803000   803            488.1889      -2254758.8      38190.418     -129418.16      220.79868     -129638.95      4.686897     
    804000   804            483.4061      -2255592.9      38190.418     -129426.87      218.63551     -129645.5       4.686897     
    805000   805            477.11016     -2255213.2      38190.418     -129424.51      215.78798     -129640.3       4.686897     
    806000   806            469.61315     -2257242.6      38190.418     -129437.54      212.39722     -129649.94      4.686897     
    807000   807            458.73157     -2256524.7      38190.418     -129441.27      207.47569     -129648.75      4.686897     
    808000   808            467.71257     -2256794.4      38190.418     -129438.72      211.53762     -129650.25      4.686897     
    809000   809            451.16842     -2257845.6      38190.418     -129449.32      204.05502     -129653.37      4.686897     
    810000   810            449.35069     -2258252.5      38190.418     -129457.73      203.23289     -129660.97      4.686897     
    811000   811            434.50532     -2258404.6      38190.418     -129463.42      196.51861     -129659.94      4.686897     
    812000   812            441.70983     -2259400.1      38190.418     -129468.72      199.77707     -129668.5       4.686897     
    813000   813            431.96827     -2259741.7      38190.418     -129468.75      195.37115     -129664.12      4.686897     
    814000   814            432.05301     -2259378        38190.418     -129469.13      195.40947     -129664.54      4.686897     
    815000   815            415.49626     -2259658.3      38190.418     -129475.76      187.92117     -129663.68      4.686897     
    816000   816            419.23132     -2260325.7      38190.418     -129481.67      189.61046     -129671.28      4.686897     
    817000   817            419.70797     -2260815.9      38190.418     -129487.05      189.82604     -129676.88      4.686897     
    818000   818            412.74177     -2261095.4      38190.418     -129489.79      186.67536     -129676.46      4.686897     
    819000   819            411.48886     -2260037.2      38190.418     -129489.87      186.1087      -129675.98      4.686897     
    820000   820            395.51665     -2261942.4      38190.418     -129501.8       178.88476     -129680.68      4.686897     
    821000   821            396.02595     -2262004.6      38190.418     -129499.23      179.11511     -129678.34      4.686897     
    822000   822            387.79432     -2262991.8      38190.418     -129510.34      175.3921      -129685.73      4.686897     
    823000   823            388.89145     -2263533.5      38190.418     -129507.85      175.88831     -129683.73      4.686897     
    824000   824            380.65596     -2263918.2      38190.418     -129519.23      172.16355     -129691.4       4.686897     
    825000   825            386.43078     -2262782.7      38190.418     -129512.72      174.77539     -129687.5       4.686897     
    826000   826            366.44395     -2264052.6      38190.418     -129526.98      165.73573     -129692.72      4.686897     
    827000   827            361.88492     -2265643.7      38190.418     -129533.62      163.67376     -129697.3       4.686897     
    828000   828            366.67226     -2264951.8      38190.418     -129529         165.83899     -129694.84      4.686897     
    829000   829            360.02411     -2265892.8      38190.418     -129539.67      162.83215     -129702.51      4.686897     
    830000   830            350.29787     -2266026.8      38190.418     -129548.17      158.43316     -129706.6       4.686897     
    831000   831            348.94756     -2265007.4      38190.418     -129544.75      157.82244     -129702.58      4.686897     
    832000   832            334.00284     -2266827.8      38190.418     -129554.78      151.06322     -129705.84      4.686897     
    833000   833            335.09217     -2267391.2      38190.418     -129560.25      151.5559      -129711.81      4.686897     
    834000   834            341.49923     -2267324.7      38190.418     -129556.89      154.4537      -129711.34      4.686897     
    835000   835            326.81614     -2268639.8      38190.418     -129570.21      147.81281     -129718.03      4.686897     
    836000   836            326.63571     -2267790.9      38190.418     -129567.61      147.73121     -129715.34      4.686897     
    837000   837            319.53959     -2268650.4      38190.418     -129573.97      144.52176     -129718.49      4.686897     
    838000   838            312.95379     -2268495        38190.418     -129578.74      141.54313     -129720.29      4.686897     
    839000   839            308.37997     -2269333.9      38190.418     -129584.88      139.47448     -129724.35      4.686897     
    840000   840            302.24137     -2269971.8      38190.418     -129592.98      136.69811     -129729.68      4.686897     
Loop time of 3039.76 on 6 procs for 840000 steps with 3500 atoms

Performance: 23.876 ns/day, 1.005 hours/ns, 276.338 timesteps/s, 967.181 katom-step/s
99.6% CPU use with 6 MPI tasks x 1 OpenMP threads

MPI task timing breakdown:
Section |  min time  |  avg time  |  max time  |%varavg| %total
---------------------------------------------------------------
Pair    | 2701.8     | 2782.6     | 2918.9     | 179.8 | 91.54
Neigh   | 2.1923     | 2.2362     | 2.3056     |   3.3 |  0.07
Comm    | 107.64     | 242.84     | 322.67     | 604.1 |  7.99
Output  | 0.17512    | 0.1874     | 0.21681    |   3.2 |  0.01
Modify  | 7.1926     | 8.1386     | 9.2941     |  29.0 |  0.27
Other   |            | 3.733      |            |       |  0.12

Nlocal:        583.333 ave         613 max         566 min
Histogram: 3 1 0 0 0 0 0 0 0 2
Nghost:        9726.67 ave        9900 max        9611 min
Histogram: 2 1 1 0 0 0 0 0 0 2
Neighs:         306908 ave      322944 max      297440 min
Histogram: 3 1 0 0 0 0 0 0 0 2

Total # of neighbors = 1841451
Ave neighs/atom = 526.12886
Neighbor list builds = 115
Dangerous builds = 0

# STAGE 2: Equilibrate at 300K for 50 ps
unfix 1
fix 1 all nvt temp 300 300 $(100.0*dt)
fix 1 all nvt temp 300 300 0.10000000000000000555

print "Equilibrating Li2Fe3SbO8 quenched structure at 300K"
Equilibrating Li2Fe3SbO8 quenched structure at 300K
run 50000
Generated 0 of 6 mixed pair_coeff terms from geometric mixing rule
Per MPI rank memory allocation (min/avg/max) = 6.208 | 6.226 | 6.236 Mbytes
   Step          Time           Temp          Press          Volume         TotEng         KinEng         PotEng        Density    
    840000   840            302.24137     -2269971.8      38190.418     -129592.98      136.69811     -129729.68      4.686897     
    841000   841            307.51768     -2269927.4      38190.418     -129587.76      139.08448     -129726.85      4.686897     
    842000   842            298.94539     -2270954.6      38190.418     -129594.35      135.20739     -129729.56      4.686897     
    843000   843            308.64864     -2270931.8      38190.418     -129587.71      139.59599     -129727.31      4.686897     
    844000   844            294.94274     -2269899.7      38190.418     -129592.32      133.39707     -129725.71      4.686897     
    845000   845            303.90295     -2270137.5      38190.418     -129590.64      137.4496      -129728.09      4.686897     
    846000   846            301.47023     -2269340.4      38190.418     -129591.07      136.34933     -129727.42      4.686897     
    847000   847            294.63646     -2270733.9      38190.418     -129595.46      133.25855     -129728.72      4.686897     
    848000   848            302.41141     -2270232.8      38190.418     -129588.12      136.77501     -129724.89      4.686897     
    849000   849            298.594       -2270412.2      38190.418     -129593.48      135.04847     -129728.53      4.686897     
    850000   850            306.48261     -2269859        38190.418     -129587.02      138.61634     -129725.64      4.686897     
    851000   851            295.95011     -2269800        38190.418     -129592.54      133.85268     -129726.4       4.686897     
    852000   852            300.5588      -2270030.8      38190.418     -129589.27      135.93711     -129725.2       4.686897     
    853000   853            304.95116     -2270364.4      38190.418     -129591.06      137.92369     -129728.98      4.686897     
    854000   854            297.51995     -2269872.9      38190.418     -129592.18      134.56269     -129726.74      4.686897     
    855000   855            301.29848     -2269223.1      38190.418     -129588.13      136.27165     -129724.41      4.686897     
    856000   856            295.86484     -2270188.4      38190.418     -129593.65      133.81412     -129727.46      4.686897     
    857000   857            302.32085     -2270521.2      38190.418     -129590.57      136.73405     -129727.3       4.686897     
    858000   858            299.04982     -2270590.3      38190.418     -129591.5       135.25463     -129726.75      4.686897     
    859000   859            298.05542     -2271204.5      38190.418     -129592.71      134.80488     -129727.51      4.686897     
    860000   860            304.1362      -2269773.9      38190.418     -129587.72      137.5551      -129725.28      4.686897     
    861000   861            301.47277     -2269591.7      38190.418     -129592.75      136.35048     -129729.1       4.686897     
    862000   862            303.01394     -2269877.1      38190.418     -129586.46      137.04752     -129723.51      4.686897     
    863000   863            298.53954     -2270679        38190.418     -129593.63      135.02384     -129728.65      4.686897     
    864000   864            301.08123     -2269534.8      38190.418     -129589.77      136.17339     -129725.94      4.686897     
    865000   865            295.26365     -2270661.1      38190.418     -129592.78      133.54221     -129726.32      4.686897     
    866000   866            299.48578     -2270282        38190.418     -129591.42      135.4518      -129726.87      4.686897     
    867000   867            305.82155     -2269771.9      38190.418     -129585.5       138.31735     -129723.82      4.686897     
    868000   868            295.09474     -2270205        38190.418     -129592.57      133.46582     -129726.03      4.686897     
    869000   869            302.73235     -2269110.8      38190.418     -129587.23      136.92017     -129724.15      4.686897     
    870000   870            294.02375     -2269583.5      38190.418     -129592.99      132.98143     -129725.97      4.686897     
    871000   871            300.41096     -2270696.9      38190.418     -129588.25      135.87024     -129724.13      4.686897     
    872000   872            294.75358     -2270367.4      38190.418     -129596.73      133.31152     -129730.04      4.686897     
    873000   873            295.47136     -2270105.2      38190.418     -129592.4       133.63615     -129726.04      4.686897     
    874000   874            297.55634     -2269264.3      38190.418     -129590.33      134.57915     -129724.91      4.686897     
    875000   875            300.62537     -2270215.7      38190.418     -129590.31      135.96722     -129726.27      4.686897     
    876000   876            304.65009     -2269134.9      38190.418     -129589.49      137.78752     -129727.28      4.686897     
    877000   877            303.20392     -2270417.6      38190.418     -129591.05      137.13345     -129728.19      4.686897     
    878000   878            301.81889     -2270652.9      38190.418     -129588.13      136.50702     -129724.63      4.686897     
    879000   879            293.9347      -2270313        38190.418     -129593.24      132.94115     -129726.18      4.686897     
    880000   880            302.21866     -2269648.7      38190.418     -129590.52      136.68783     -129727.21      4.686897     
    881000   881            303.63446     -2270662.3      38190.418     -129590.35      137.32817     -129727.68      4.686897     
    882000   882            304.49867     -2270887.2      38190.418     -129592.42      137.71904     -129730.14      4.686897     
    883000   883            297.75922     -2270480.7      38190.418     -129591.01      134.67091     -129725.68      4.686897     
    884000   884            299.72778     -2269710.3      38190.418     -129592.25      135.56125     -129727.81      4.686897     
    885000   885            303.18224     -2269362.8      38190.418     -129588.88      137.12364     -129726         4.686897     
    886000   886            298.80361     -2270690.9      38190.418     -129593.69      135.14327     -129728.83      4.686897     
    887000   887            297.39188     -2269359.5      38190.418     -129591.61      134.50477     -129726.11      4.686897     
    888000   888            304.36651     -2271314.4      38190.418     -129594.51      137.65926     -129732.17      4.686897     
    889000   889            300.88149     -2270617.7      38190.418     -129591.82      136.08306     -129727.9       4.686897     
    890000   890            303.91198     -2269925.8      38190.418     -129587.57      137.45369     -129725.02      4.686897     
Loop time of 182.016 on 6 procs for 50000 steps with 3500 atoms

Performance: 23.734 ns/day, 1.011 hours/ns, 274.702 timesteps/s, 961.456 katom-step/s
99.5% CPU use with 6 MPI tasks x 1 OpenMP threads

MPI task timing breakdown:
Section |  min time  |  avg time  |  max time  |%varavg| %total
---------------------------------------------------------------
Pair    | 160.24     | 166.19     | 175.52     |  47.6 | 91.31
Neigh   | 0          | 0          | 0          |   0.0 |  0.00
Comm    | 5.8117     | 15.082     | 21.037     | 157.2 |  8.29
Output  | 0.010859   | 0.011576   | 0.013284   |   0.8 |  0.01
Modify  | 0.46048    | 0.50042    | 0.55803    |   5.7 |  0.27
Other   |            | 0.2312     |            |       |  0.13

Nlocal:        583.333 ave         615 max         566 min
Histogram: 3 1 0 0 0 0 0 0 0 2
Nghost:        9726.17 ave        9910 max        9611 min
Histogram: 2 1 1 0 0 0 0 0 0 2
Neighs:         306627 ave      323881 max      297032 min
Histogram: 3 1 0 0 0 0 0 0 0 2

Total # of neighbors = 1839761
Ave neighs/atom = 525.646
Neighbor list builds = 0
Dangerous builds = 0

# STAGE 3: Final minimization
minimize 1.0e-4 1.0e-6 1000 10000
Generated 0 of 6 mixed pair_coeff terms from geometric mixing rule
Per MPI rank memory allocation (min/avg/max) = 7.333 | 7.351 | 7.361 Mbytes
   Step          Time           Temp          Press          Volume         TotEng         KinEng         PotEng        Density    
    890000   890            303.91198     -2269925.8      38190.418     -129587.57      137.45369     -129725.02      4.686897     
    890003   890.003        303.91198     -2290155.4      38190.418     -129720.12      137.45369     -129857.58      4.686897     
Loop time of 0.0308724 on 6 procs for 3 steps with 3500 atoms

99.7% CPU use with 6 MPI tasks x 1 OpenMP threads

Minimization stats:
  Stopping criterion = energy tolerance
  Energy initial, next-to-last, final = 
     -129725.018806002  -129850.770277052  -129857.577476745
  Force two-norm initial, final = 216.28112 40.482473
  Force max component initial, final = 9.1420048 8.8058093
  Final line search alpha, max atom move = 0.010853231 0.095571481
  Iterations, force evaluations = 3 6

MPI task timing breakdown:
Section |  min time  |  avg time  |  max time  |%varavg| %total
---------------------------------------------------------------
Pair    | 0.026742   | 0.027719   | 0.029238   |   0.6 | 89.79
Neigh   | 0          | 0          | 0          |   0.0 |  0.00
Comm    | 0.00076388 | 0.0022861  | 0.0032638  |   2.1 |  7.41
Output  | 0          | 0          | 0          |   0.0 |  0.00
Modify  | 0          | 0          | 0          |   0.0 |  0.00
Other   |            | 0.0008674  |            |       |  2.81

Nlocal:        583.333 ave         613 max         565 min
Histogram: 3 1 0 0 0 0 0 0 0 2
Nghost:           9730 ave        9925 max        9608 min
Histogram: 2 2 0 0 0 0 0 0 0 2
Neighs:         306616 ave      323031 max      296463 min
Histogram: 3 1 0 0 0 0 0 0 0 2

Total # of neighbors = 1839697
Ave neighs/atom = 525.62771
Neighbor list builds = 0
Dangerous builds = 0

# Save quenched structure with descriptive name
write_data Li2Fe3SbO8_quenched_5Kps_crystalline.data
System init for write_data ...
Generated 0 of 6 mixed pair_coeff terms from geometric mixing rule
WARNING: Not all mixed pair coeffs generated from mixing. Use write_data with 'pair ij' option to store all pair coeffs. (src/write_data.cpp:364)
write_dump all xyz Li2Fe3SbO8_quenched_5Kps_crystalline.xyz modify element Li Fe Sb O
undump 1

print "QUENCH COMPLETE for {formula} at {cooling_rate} K/ps - structure type: {structure_type}"
QUENCH COMPLETE for {formula} at {cooling_rate} K/ps - structure type: {structure_type}
Total wall time: 0:53:41
