Generated by pymatgen.io.lammps.data.LammpsData

3500  atoms

   4  atom types

0.000000 30.147895  xlo xhi
0.000000 26.108910  ylo yhi
0.000000 49.015660  zlo zhi
-15.073913 0.000436 -0.000760  xy xz yz

Masses

1    6.941000
2   54.938045
3  121.760000
4   15.999400

Atoms

1     1 0.0000  -0.000001  3.481110  8.870697
2     1 0.0000   0.000086  3.480957 18.673829
3     1 0.0000   0.000174  3.480805 28.476961
4     1 0.0000   0.000261  3.480653 38.280093
5     1 0.0000   0.000348  3.480501 48.083225
6     1 0.0000  -3.014783  8.702892  8.870697
7     1 0.0000  -3.014696  8.702739 18.673829
8     1 0.0000  -3.014609  8.702587 28.476961
9     1 0.0000  -3.014522  8.702435 38.280093
10    1 0.0000  -3.014434  8.702283 48.083225
11    1 0.0000  -6.029566 13.924674  8.870697
12    1 0.0000  -6.029479 13.924521 18.673829
13    1 0.0000  -6.029391 13.924369 28.476961
14    1 0.0000  -6.029304 13.924217 38.280093
15    1 0.0000  -6.029217 13.924065 48.083225
16    1 0.0000  -9.044348 19.146456  8.870697
17    1 0.0000  -9.044261 19.146303 18.673829
18    1 0.0000  -9.044174 19.146151 28.476961
19    1 0.0000  -9.044087 19.145999 38.280093
20    1 0.0000  -9.043999 19.145847 48.083225
21    1 0.0000 -12.059131 24.368238  8.870697
22    1 0.0000 -12.059044 24.368085 18.673829
23    1 0.0000 -12.058956 24.367933 28.476961
24    1 0.0000 -12.058869 24.367781 38.280093
25    1 0.0000 -12.058782 24.367629 48.083225
26    1 0.0000   6.029578  3.481110  8.870697
27    1 0.0000   6.029665  3.480957 18.673829
28    1 0.0000   6.029753  3.480805 28.476961
29    1 0.0000   6.029840  3.480653 38.280093
30    1 0.0000   6.029927  3.480501 48.083225
31    1 0.0000   3.014796  8.702892  8.870697
32    1 0.0000   3.014883  8.702739 18.673829
33    1 0.0000   3.014970  8.702587 28.476961
34    1 0.0000   3.015057  8.702435 38.280093
35    1 0.0000   3.015145  8.702283 48.083225
36    1 0.0000   0.000013 13.924674  8.870697
37    1 0.0000   0.000100 13.924521 18.673829
38    1 0.0000   0.000188 13.924369 28.476961
39    1 0.0000   0.000275 13.924217 38.280093
40    1 0.0000   0.000362 13.924065 48.083225
41    1 0.0000  -3.014769 19.146456  8.870697
42    1 0.0000  -3.014682 19.146303 18.673829
43    1 0.0000  -3.014595 19.146151 28.476961
44    1 0.0000  -3.014508 19.145999 38.280093
45    1 0.0000  -3.014420 19.145847 48.083225
46    1 0.0000  -6.029552 24.368238  8.870697
47    1 0.0000  -6.029465 24.368085 18.673829
48    1 0.0000  -6.029377 24.367933 28.476961
49    1 0.0000  -6.029290 24.367781 38.280093
50    1 0.0000  -6.029203 24.367629 48.083225
51    1 0.0000  12.059157  3.481110  8.870697
52    1 0.0000  12.059244  3.480957 18.673829
53    1 0.0000  12.059332  3.480805 28.476961
54    1 0.0000  12.059419  3.480653 38.280093
55    1 0.0000  12.059506  3.480501 48.083225
56    1 0.0000   9.044375  8.702892  8.870697
57    1 0.0000   9.044462  8.702739 18.673829
58    1 0.0000   9.044549  8.702587 28.476961
59    1 0.0000   9.044636  8.702435 38.280093
60    1 0.0000   9.044724  8.702283 48.083225
61    1 0.0000   6.029592 13.924674  8.870697
62    1 0.0000   6.029679 13.924521 18.673829
63    1 0.0000   6.029767 13.924369 28.476961
64    1 0.0000   6.029854 13.924217 38.280093
65    1 0.0000   6.029941 13.924065 48.083225
66    1 0.0000   3.014810 19.146456  8.870697
67    1 0.0000   3.014897 19.146303 18.673829
68    1 0.0000   3.014984 19.146151 28.476961
69    1 0.0000   3.015071 19.145999 38.280093
70    1 0.0000   3.015159 19.145847 48.083225
71    1 0.0000   0.000027 24.368238  8.870697
72    1 0.0000   0.000114 24.368085 18.673829
73    1 0.0000   0.000202 24.367933 28.476961
74    1 0.0000   0.000289 24.367781 38.280093
75    1 0.0000   0.000376 24.367629 48.083225
76    1 0.0000  18.088736  3.481110  8.870697
77    1 0.0000  18.088823  3.480957 18.673829
78    1 0.0000  18.088911  3.480805 28.476961
79    1 0.0000  18.088998  3.480653 38.280093
80    1 0.0000  18.089085  3.480501 48.083225
81    1 0.0000  15.073954  8.702892  8.870697
82    1 0.0000  15.074041  8.702739 18.673829
83    1 0.0000  15.074128  8.702587 28.476961
84    1 0.0000  15.074215  8.702435 38.280093
85    1 0.0000  15.074303  8.702283 48.083225
86    1 0.0000  12.059171 13.924674  8.870697
87    1 0.0000  12.059258 13.924521 18.673829
88    1 0.0000  12.059346 13.924369 28.476961
89    1 0.0000  12.059433 13.924217 38.280093
90    1 0.0000  12.059520 13.924065 48.083225
91    1 0.0000   9.044389 19.146456  8.870697
92    1 0.0000   9.044476 19.146303 18.673829
93    1 0.0000   9.044563 19.146151 28.476961
94    1 0.0000   9.044650 19.145999 38.280093
95    1 0.0000   9.044738 19.145847 48.083225
96    1 0.0000   6.029606 24.368238  8.870697
97    1 0.0000   6.029693 24.368085 18.673829
98    1 0.0000   6.029781 24.367933 28.476961
99    1 0.0000   6.029868 24.367781 38.280093
100   1 0.0000   6.029955 24.367629 48.083225
101   1 0.0000  24.118315  3.481110  8.870697
102   1 0.0000  24.118402  3.480957 18.673829
103   1 0.0000  24.118490  3.480805 28.476961
104   1 0.0000  24.118577  3.480653 38.280093
105   1 0.0000  24.118664  3.480501 48.083225
106   1 0.0000  21.103533  8.702892  8.870697
107   1 0.0000  21.103620  8.702739 18.673829
108   1 0.0000  21.103707  8.702587 28.476961
109   1 0.0000  21.103794  8.702435 38.280093
110   1 0.0000  21.103882  8.702283 48.083225
111   1 0.0000  18.088750 13.924674  8.870697
112   1 0.0000  18.088837 13.924521 18.673829
113   1 0.0000  18.088925 13.924369 28.476961
114   1 0.0000  18.089012 13.924217 38.280093
115   1 0.0000  18.089099 13.924065 48.083225
116   1 0.0000  15.073968 19.146456  8.870697
117   1 0.0000  15.074055 19.146303 18.673829
118   1 0.0000  15.074142 19.146151 28.476961
119   1 0.0000  15.074229 19.145999 38.280093
120   1 0.0000  15.074317 19.145847 48.083225
121   1 0.0000  12.059185 24.368238  8.870697
122   1 0.0000  12.059272 24.368085 18.673829
123   1 0.0000  12.059360 24.367933 28.476961
124   1 0.0000  12.059447 24.367781 38.280093
125   1 0.0000  12.059534 24.367629 48.083225
126   1 0.0000  -3.014669  5.221627  9.667506
127   1 0.0000  -3.014582  5.221475 19.470638
128   1 0.0000  -3.014495  5.221323 29.273770
129   1 0.0000  -3.014408  5.221171 39.076902
130   1 0.0000  -3.014320  5.221018 48.880034
131   1 0.0000  -6.029452 10.443409  9.667506
132   1 0.0000  -6.029365 10.443257 19.470638
133   1 0.0000  -6.029277 10.443105 29.273770
134   1 0.0000  -6.029190 10.442953 39.076902
135   1 0.0000  -6.029103 10.442800 48.880034
136   1 0.0000  -9.044234 15.665191  9.667506
137   1 0.0000  -9.044147 15.665039 19.470638
138   1 0.0000  -9.044060 15.664887 29.273770
139   1 0.0000  -9.043973 15.664735 39.076902
140   1 0.0000  -9.043885 15.664582 48.880034
141   1 0.0000 -12.059017 20.886973  9.667506
142   1 0.0000 -12.058930 20.886821 19.470638
143   1 0.0000 -12.058842 20.886669 29.273770
144   1 0.0000 -12.058755 20.886517 39.076902
145   1 0.0000 -12.058668 20.886364 48.880034
146   1 0.0000 -15.073799 26.108755  9.667506
147   1 0.0000 -15.073712 26.108603 19.470638
148   1 0.0000 -15.073625 26.108451 29.273770
149   1 0.0000 -15.073538 26.108299 39.076902
150   1 0.0000 -15.073450 26.108146 48.880034
151   1 0.0000   3.014910  5.221627  9.667506
152   1 0.0000   3.014997  5.221475 19.470638
153   1 0.0000   3.015084  5.221323 29.273770
154   1 0.0000   3.015171  5.221171 39.076902
155   1 0.0000   3.015259  5.221018 48.880034
156   1 0.0000   0.000127 10.443409  9.667506
157   1 0.0000   0.000214 10.443257 19.470638
158   1 0.0000   0.000302 10.443105 29.273770
159   1 0.0000   0.000389 10.442953 39.076902
160   1 0.0000   0.000476 10.442800 48.880034
161   1 0.0000  -3.014655 15.665191  9.667506
162   1 0.0000  -3.014568 15.665039 19.470638
163   1 0.0000  -3.014481 15.664887 29.273770
164   1 0.0000  -3.014394 15.664735 39.076902
165   1 0.0000  -3.014306 15.664582 48.880034
166   1 0.0000  -6.029438 20.886973  9.667506
167   1 0.0000  -6.029351 20.886821 19.470638
168   1 0.0000  -6.029263 20.886669 29.273770
169   1 0.0000  -6.029176 20.886517 39.076902
170   1 0.0000  -6.029089 20.886364 48.880034
171   1 0.0000  -9.044220 26.108755  9.667506
172   1 0.0000  -9.044133 26.108603 19.470638
173   1 0.0000  -9.044046 26.108451 29.273770
174   1 0.0000  -9.043959 26.108299 39.076902
175   1 0.0000  -9.043871 26.108146 48.880034
176   1 0.0000   9.044489  5.221627  9.667506
177   1 0.0000   9.044576  5.221475 19.470638
178   1 0.0000   9.044663  5.221323 29.273770
179   1 0.0000   9.044750  5.221171 39.076902
180   1 0.0000   9.044838  5.221018 48.880034
181   1 0.0000   6.029706 10.443409  9.667506
182   1 0.0000   6.029793 10.443257 19.470638
183   1 0.0000   6.029881 10.443105 29.273770
184   1 0.0000   6.029968 10.442953 39.076902
185   1 0.0000   6.030055 10.442800 48.880034
186   1 0.0000   3.014924 15.665191  9.667506
187   1 0.0000   3.015011 15.665039 19.470638
188   1 0.0000   3.015098 15.664887 29.273770
189   1 0.0000   3.015185 15.664735 39.076902
190   1 0.0000   3.015273 15.664582 48.880034
191   1 0.0000   0.000141 20.886973  9.667506
192   1 0.0000   0.000228 20.886821 19.470638
193   1 0.0000   0.000316 20.886669 29.273770
194   1 0.0000   0.000403 20.886517 39.076902
195   1 0.0000   0.000490 20.886364 48.880034
196   1 0.0000  -3.014641 26.108755  9.667506
197   1 0.0000  -3.014554 26.108603 19.470638
198   1 0.0000  -3.014467 26.108451 29.273770
199   1 0.0000  -3.014380 26.108299 39.076902
200   1 0.0000  -3.014292 26.108146 48.880034
201   1 0.0000  15.074068  5.221627  9.667506
202   1 0.0000  15.074155  5.221475 19.470638
203   1 0.0000  15.074242  5.221323 29.273770
204   1 0.0000  15.074329  5.221171 39.076902
205   1 0.0000  15.074417  5.221018 48.880034
206   1 0.0000  12.059285 10.443409  9.667506
207   1 0.0000  12.059372 10.443257 19.470638
208   1 0.0000  12.059460 10.443105 29.273770
209   1 0.0000  12.059547 10.442953 39.076902
210   1 0.0000  12.059634 10.442800 48.880034
211   1 0.0000   9.044503 15.665191  9.667506
212   1 0.0000   9.044590 15.665039 19.470638
213   1 0.0000   9.044677 15.664887 29.273770
214   1 0.0000   9.044764 15.664735 39.076902
215   1 0.0000   9.044852 15.664582 48.880034
216   1 0.0000   6.029720 20.886973  9.667506
217   1 0.0000   6.029807 20.886821 19.470638
218   1 0.0000   6.029895 20.886669 29.273770
219   1 0.0000   6.029982 20.886517 39.076902
220   1 0.0000   6.030069 20.886364 48.880034
221   1 0.0000   3.014938 26.108755  9.667506
222   1 0.0000   3.015025 26.108603 19.470638
223   1 0.0000   3.015112 26.108451 29.273770
224   1 0.0000   3.015199 26.108299 39.076902
225   1 0.0000   3.015287 26.108146 48.880034
226   1 0.0000  21.103647  5.221627  9.667506
227   1 0.0000  21.103734  5.221475 19.470638
228   1 0.0000  21.103821  5.221323 29.273770
229   1 0.0000  21.103908  5.221171 39.076902
230   1 0.0000  21.103996  5.221018 48.880034
231   1 0.0000  18.088864 10.443409  9.667506
232   1 0.0000  18.088951 10.443257 19.470638
233   1 0.0000  18.089039 10.443105 29.273770
234   1 0.0000  18.089126 10.442953 39.076902
235   1 0.0000  18.089213 10.442800 48.880034
236   1 0.0000  15.074082 15.665191  9.667506
237   1 0.0000  15.074169 15.665039 19.470638
238   1 0.0000  15.074256 15.664887 29.273770
239   1 0.0000  15.074343 15.664735 39.076902
240   1 0.0000  15.074431 15.664582 48.880034
241   1 0.0000  12.059299 20.886973  9.667506
242   1 0.0000  12.059386 20.886821 19.470638
243   1 0.0000  12.059474 20.886669 29.273770
244   1 0.0000  12.059561 20.886517 39.076902
245   1 0.0000  12.059648 20.886364 48.880034
246   1 0.0000   9.044517 26.108755  9.667506
247   1 0.0000   9.044604 26.108603 19.470638
248   1 0.0000   9.044691 26.108451 29.273770
249   1 0.0000   9.044778 26.108299 39.076902
250   1 0.0000   9.044866 26.108146 48.880034
251   1 0.0000   3.014821  5.221687  4.765920
252   1 0.0000   3.014908  5.221535 14.569052
253   1 0.0000   3.014995  5.221383 24.372184
254   1 0.0000   3.015083  5.221231 34.175316
255   1 0.0000   3.015170  5.221079 43.978448
256   1 0.0000   0.000038 10.443469  4.765920
257   1 0.0000   0.000126 10.443317 14.569052
258   1 0.0000   0.000213 10.443165 24.372184
259   1 0.0000   0.000300 10.443013 34.175316
260   1 0.0000   0.000387 10.442861 43.978448
261   1 0.0000  -3.014744 15.665251  4.765920
262   1 0.0000  -3.014657 15.665099 14.569052
263   1 0.0000  -3.014570 15.664947 24.372184
264   1 0.0000  -3.014482 15.664795 34.175316
265   1 0.0000  -3.014395 15.664643 43.978448
266   1 0.0000  -6.029527 20.887033  4.765920
267   1 0.0000  -6.029440 20.886881 14.569052
268   1 0.0000  -6.029352 20.886729 24.372184
269   1 0.0000  -6.029265 20.886577 34.175316
270   1 0.0000  -6.029178 20.886425 43.978448
271   1 0.0000  -9.044309 26.108815  4.765920
272   1 0.0000  -9.044222 26.108663 14.569052
273   1 0.0000  -9.044135 26.108511 24.372184
274   1 0.0000  -9.044048 26.108359 34.175316
275   1 0.0000  -9.043960 26.108207 43.978448
276   1 0.0000   9.044400  5.221687  4.765920
277   1 0.0000   9.044487  5.221535 14.569052
278   1 0.0000   9.044574  5.221383 24.372184
279   1 0.0000   9.044662  5.221231 34.175316
280   1 0.0000   9.044749  5.221079 43.978448
281   1 0.0000   6.029617 10.443469  4.765920
282   1 0.0000   6.029705 10.443317 14.569052
283   1 0.0000   6.029792 10.443165 24.372184
284   1 0.0000   6.029879 10.443013 34.175316
285   1 0.0000   6.029966 10.442861 43.978448
286   1 0.0000   3.014835 15.665251  4.765920
287   1 0.0000   3.014922 15.665099 14.569052
288   1 0.0000   3.015009 15.664947 24.372184
289   1 0.0000   3.015097 15.664795 34.175316
290   1 0.0000   3.015184 15.664643 43.978448
291   1 0.0000   0.000052 20.887033  4.765920
292   1 0.0000   0.000139 20.886881 14.569052
293   1 0.0000   0.000227 20.886729 24.372184
294   1 0.0000   0.000314 20.886577 34.175316
295   1 0.0000   0.000401 20.886425 43.978448
296   1 0.0000  -3.014730 26.108815  4.765920
297   1 0.0000  -3.014643 26.108663 14.569052
298   1 0.0000  -3.014556 26.108511 24.372184
299   1 0.0000  -3.014469 26.108359 34.175316
300   1 0.0000  -3.014381 26.108207 43.978448
301   1 0.0000  15.073979  5.221687  4.765920
302   1 0.0000  15.074066  5.221535 14.569052
303   1 0.0000  15.074153  5.221383 24.372184
304   1 0.0000  15.074241  5.221231 34.175316
305   1 0.0000  15.074328  5.221079 43.978448
306   1 0.0000  12.059196 10.443469  4.765920
307   1 0.0000  12.059284 10.443317 14.569052
308   1 0.0000  12.059371 10.443165 24.372184
309   1 0.0000  12.059458 10.443013 34.175316
310   1 0.0000  12.059545 10.442861 43.978448
311   1 0.0000   9.044414 15.665251  4.765920
312   1 0.0000   9.044501 15.665099 14.569052
313   1 0.0000   9.044588 15.664947 24.372184
314   1 0.0000   9.044676 15.664795 34.175316
315   1 0.0000   9.044763 15.664643 43.978448
316   1 0.0000   6.029631 20.887033  4.765920
317   1 0.0000   6.029718 20.886881 14.569052
318   1 0.0000   6.029806 20.886729 24.372184
319   1 0.0000   6.029893 20.886577 34.175316
320   1 0.0000   6.029980 20.886425 43.978448
321   1 0.0000   3.014849 26.108815  4.765920
322   1 0.0000   3.014936 26.108663 14.569052
323   1 0.0000   3.015023 26.108511 24.372184
324   1 0.0000   3.015110 26.108359 34.175316
325   1 0.0000   3.015198 26.108207 43.978448
326   1 0.0000  21.103558  5.221687  4.765920
327   1 0.0000  21.103645  5.221535 14.569052
328   1 0.0000  21.103732  5.221383 24.372184
329   1 0.0000  21.103820  5.221231 34.175316
330   1 0.0000  21.103907  5.221079 43.978448
331   1 0.0000  18.088775 10.443469  4.765920
332   1 0.0000  18.088863 10.443317 14.569052
333   1 0.0000  18.088950 10.443165 24.372184
334   1 0.0000  18.089037 10.443013 34.175316
335   1 0.0000  18.089124 10.442861 43.978448
336   1 0.0000  15.073993 15.665251  4.765920
337   1 0.0000  15.074080 15.665099 14.569052
338   1 0.0000  15.074167 15.664947 24.372184
339   1 0.0000  15.074255 15.664795 34.175316
340   1 0.0000  15.074342 15.664643 43.978448
341   1 0.0000  12.059210 20.887033  4.765920
342   1 0.0000  12.059297 20.886881 14.569052
343   1 0.0000  12.059385 20.886729 24.372184
344   1 0.0000  12.059472 20.886577 34.175316
345   1 0.0000  12.059559 20.886425 43.978448
346   1 0.0000   9.044428 26.108815  4.765920
347   1 0.0000   9.044515 26.108663 14.569052
348   1 0.0000   9.044602 26.108511 24.372184
349   1 0.0000   9.044689 26.108359 34.175316
350   1 0.0000   9.044777 26.108207 43.978448
351   1 0.0000  27.133137  5.221687  4.765920
352   1 0.0000  27.133224  5.221535 14.569052
353   1 0.0000  27.133311  5.221383 24.372184
354   1 0.0000  27.133399  5.221231 34.175316
355   1 0.0000  27.133486  5.221079 43.978448
356   1 0.0000  24.118354 10.443469  4.765920
357   1 0.0000  24.118442 10.443317 14.569052
358   1 0.0000  24.118529 10.443165 24.372184
359   1 0.0000  24.118616 10.443013 34.175316
360   1 0.0000  24.118703 10.442861 43.978448
361   1 0.0000  21.103572 15.665251  4.765920
362   1 0.0000  21.103659 15.665099 14.569052
363   1 0.0000  21.103746 15.664947 24.372184
364   1 0.0000  21.103834 15.664795 34.175316
365   1 0.0000  21.103921 15.664643 43.978448
366   1 0.0000  18.088789 20.887033  4.765920
367   1 0.0000  18.088876 20.886881 14.569052
368   1 0.0000  18.088964 20.886729 24.372184
369   1 0.0000  18.089051 20.886577 34.175316
370   1 0.0000  18.089138 20.886425 43.978448
371   1 0.0000  15.074007 26.108815  4.765920
372   1 0.0000  15.074094 26.108663 14.569052
373   1 0.0000  15.074181 26.108511 24.372184
374   1 0.0000  15.074268 26.108359 34.175316
375   1 0.0000  15.074356 26.108207 43.978448
376   1 0.0000   3.014827  1.740640  3.969131
377   1 0.0000   3.014914  1.740488 13.772263
378   1 0.0000   3.015002  1.740336 23.575395
379   1 0.0000   3.015089  1.740184 33.378527
380   1 0.0000   3.015176  1.740032 43.181659
381   1 0.0000   0.000045  6.962422  3.969131
382   1 0.0000   0.000132  6.962270 13.772263
383   1 0.0000   0.000219  6.962118 23.575395
384   1 0.0000   0.000306  6.961966 33.378527
385   1 0.0000   0.000394  6.961814 43.181659
386   1 0.0000  -3.014738 12.184204  3.969131
387   1 0.0000  -3.014651 12.184052 13.772263
388   1 0.0000  -3.014563 12.183900 23.575395
389   1 0.0000  -3.014476 12.183748 33.378527
390   1 0.0000  -3.014389 12.183596 43.181659
391   1 0.0000  -6.029520 17.405986  3.969131
392   1 0.0000  -6.029433 17.405834 13.772263
393   1 0.0000  -6.029346 17.405682 23.575395
394   1 0.0000  -6.029259 17.405530 33.378527
395   1 0.0000  -6.029171 17.405378 43.181659
396   1 0.0000  -9.044303 22.627768  3.969131
397   1 0.0000  -9.044216 22.627616 13.772263
398   1 0.0000  -9.044128 22.627464 23.575395
399   1 0.0000  -9.044041 22.627312 33.378527
400   1 0.0000  -9.043954 22.627160 43.181659
401   1 0.0000   9.044406  1.740640  3.969131
402   1 0.0000   9.044493  1.740488 13.772263
403   1 0.0000   9.044581  1.740336 23.575395
404   1 0.0000   9.044668  1.740184 33.378527
405   1 0.0000   9.044755  1.740032 43.181659
406   1 0.0000   6.029624  6.962422  3.969131
407   1 0.0000   6.029711  6.962270 13.772263
408   1 0.0000   6.029798  6.962118 23.575395
409   1 0.0000   6.029885  6.961966 33.378527
410   1 0.0000   6.029973  6.961814 43.181659
411   1 0.0000   3.014841 12.184204  3.969131
412   1 0.0000   3.014928 12.184052 13.772263
413   1 0.0000   3.015016 12.183900 23.575395
414   1 0.0000   3.015103 12.183748 33.378527
415   1 0.0000   3.015190 12.183596 43.181659
416   1 0.0000   0.000059 17.405986  3.969131
417   1 0.0000   0.000146 17.405834 13.772263
418   1 0.0000   0.000233 17.405682 23.575395
419   1 0.0000   0.000320 17.405530 33.378527
420   1 0.0000   0.000408 17.405378 43.181659
421   1 0.0000  -3.014724 22.627768  3.969131
422   1 0.0000  -3.014637 22.627616 13.772263
423   1 0.0000  -3.014549 22.627464 23.575395
424   1 0.0000  -3.014462 22.627312 33.378527
425   1 0.0000  -3.014375 22.627160 43.181659
426   1 0.0000  15.073985  1.740640  3.969131
427   1 0.0000  15.074072  1.740488 13.772263
428   1 0.0000  15.074160  1.740336 23.575395
429   1 0.0000  15.074247  1.740184 33.378527
430   1 0.0000  15.074334  1.740032 43.181659
431   1 0.0000  12.059203  6.962422  3.969131
432   1 0.0000  12.059290  6.962270 13.772263
433   1 0.0000  12.059377  6.962118 23.575395
434   1 0.0000  12.059464  6.961966 33.378527
435   1 0.0000  12.059552  6.961814 43.181659
436   1 0.0000   9.044420 12.184204  3.969131
437   1 0.0000   9.044507 12.184052 13.772263
438   1 0.0000   9.044595 12.183900 23.575395
439   1 0.0000   9.044682 12.183748 33.378527
440   1 0.0000   9.044769 12.183596 43.181659
441   1 0.0000   6.029638 17.405986  3.969131
442   1 0.0000   6.029725 17.405834 13.772263
443   1 0.0000   6.029812 17.405682 23.575395
444   1 0.0000   6.029899 17.405530 33.378527
445   1 0.0000   6.029987 17.405378 43.181659
446   1 0.0000   3.014855 22.627768  3.969131
447   1 0.0000   3.014942 22.627616 13.772263
448   1 0.0000   3.015030 22.627464 23.575395
449   1 0.0000   3.015117 22.627312 33.378527
450   1 0.0000   3.015204 22.627160 43.181659
451   1 0.0000  21.103564  1.740640  3.969131
452   1 0.0000  21.103651  1.740488 13.772263
453   1 0.0000  21.103739  1.740336 23.575395
454   1 0.0000  21.103826  1.740184 33.378527
455   1 0.0000  21.103913  1.740032 43.181659
456   1 0.0000  18.088782  6.962422  3.969131
457   1 0.0000  18.088869  6.962270 13.772263
458   1 0.0000  18.088956  6.962118 23.575395
459   1 0.0000  18.089043  6.961966 33.378527
460   1 0.0000  18.089131  6.961814 43.181659
461   1 0.0000  15.073999 12.184204  3.969131
462   1 0.0000  15.074086 12.184052 13.772263
463   1 0.0000  15.074174 12.183900 23.575395
464   1 0.0000  15.074261 12.183748 33.378527
465   1 0.0000  15.074348 12.183596 43.181659
466   1 0.0000  12.059217 17.405986  3.969131
467   1 0.0000  12.059304 17.405834 13.772263
468   1 0.0000  12.059391 17.405682 23.575395
469   1 0.0000  12.059478 17.405530 33.378527
470   1 0.0000  12.059566 17.405378 43.181659
471   1 0.0000   9.044434 22.627768  3.969131
472   1 0.0000   9.044521 22.627616 13.772263
473   1 0.0000   9.044609 22.627464 23.575395
474   1 0.0000   9.044696 22.627312 33.378527
475   1 0.0000   9.044783 22.627160 43.181659
476   1 0.0000  27.133143  1.740640  3.969131
477   1 0.0000  27.133230  1.740488 13.772263
478   1 0.0000  27.133318  1.740336 23.575395
479   1 0.0000  27.133405  1.740184 33.378527
480   1 0.0000  27.133492  1.740032 43.181659
481   1 0.0000  24.118361  6.962422  3.969131
482   1 0.0000  24.118448  6.962270 13.772263
483   1 0.0000  24.118535  6.962118 23.575395
484   1 0.0000  24.118622  6.961966 33.378527
485   1 0.0000  24.118710  6.961814 43.181659
486   1 0.0000  21.103578 12.184204  3.969131
487   1 0.0000  21.103665 12.184052 13.772263
488   1 0.0000  21.103753 12.183900 23.575395
489   1 0.0000  21.103840 12.183748 33.378527
490   1 0.0000  21.103927 12.183596 43.181659
491   1 0.0000  18.088796 17.405986  3.969131
492   1 0.0000  18.088883 17.405834 13.772263
493   1 0.0000  18.088970 17.405682 23.575395
494   1 0.0000  18.089057 17.405530 33.378527
495   1 0.0000  18.089145 17.405378 43.181659
496   1 0.0000  15.074013 22.627768  3.969131
497   1 0.0000  15.074100 22.627616 13.772263
498   1 0.0000  15.074188 22.627464 23.575395
499   1 0.0000  15.074275 22.627312 33.378527
500   1 0.0000  15.074362 22.627160 43.181659
501   2 0.0000  -1.509481  4.290601  2.090861
502   2 0.0000  -1.509393  4.290449 11.893993
503   2 0.0000  -1.509306  4.290297 21.697125
504   2 0.0000  -1.509219  4.290145 31.500257
505   2 0.0000  -1.509132  4.289993 41.303389
506   2 0.0000  -4.524263  9.512383  2.090861
507   2 0.0000  -4.524176  9.512231 11.893993
508   2 0.0000  -4.524089  9.512079 21.697125
509   2 0.0000  -4.524001  9.511927 31.500257
510   2 0.0000  -4.523914  9.511775 41.303389
511   2 0.0000  -7.539046 14.734165  2.090861
512   2 0.0000  -7.538959 14.734013 11.893993
513   2 0.0000  -7.538871 14.733861 21.697125
514   2 0.0000  -7.538784 14.733709 31.500257
515   2 0.0000  -7.538697 14.733557 41.303389
516   2 0.0000 -10.553828 19.955947  2.090861
517   2 0.0000 -10.553741 19.955795 11.893993
518   2 0.0000 -10.553654 19.955643 21.697125
519   2 0.0000 -10.553567 19.955491 31.500257
520   2 0.0000 -10.553479 19.955339 41.303389
521   2 0.0000 -13.568611 25.177729  2.090861
522   2 0.0000 -13.568524 25.177577 11.893993
523   2 0.0000 -13.568436 25.177425 21.697125
524   2 0.0000 -13.568349 25.177273 31.500257
525   2 0.0000 -13.568262 25.177121 41.303389
526   2 0.0000   4.520098  4.290601  2.090861
527   2 0.0000   4.520186  4.290449 11.893993
528   2 0.0000   4.520273  4.290297 21.697125
529   2 0.0000   4.520360  4.290145 31.500257
530   2 0.0000   4.520447  4.289993 41.303389
531   2 0.0000   1.505316  9.512383  2.090861
532   2 0.0000   1.505403  9.512231 11.893993
533   2 0.0000   1.505490  9.512079 21.697125
534   2 0.0000   1.505578  9.511927 31.500257
535   2 0.0000   1.505665  9.511775 41.303389
536   2 0.0000  -1.509467 14.734165  2.090861
537   2 0.0000  -1.509380 14.734013 11.893993
538   2 0.0000  -1.509292 14.733861 21.697125
539   2 0.0000  -1.509205 14.733709 31.500257
540   2 0.0000  -1.509118 14.733557 41.303389
541   2 0.0000  -4.524249 19.955947  2.090861
542   2 0.0000  -4.524162 19.955795 11.893993
543   2 0.0000  -4.524075 19.955643 21.697125
544   2 0.0000  -4.523988 19.955491 31.500257
545   2 0.0000  -4.523900 19.955339 41.303389
546   2 0.0000  -7.539032 25.177729  2.090861
547   2 0.0000  -7.538945 25.177577 11.893993
548   2 0.0000  -7.538857 25.177425 21.697125
549   2 0.0000  -7.538770 25.177273 31.500257
550   2 0.0000  -7.538683 25.177121 41.303389
551   2 0.0000  10.549677  4.290601  2.090861
552   2 0.0000  10.549765  4.290449 11.893993
553   2 0.0000  10.549852  4.290297 21.697125
554   2 0.0000  10.549939  4.290145 31.500257
555   2 0.0000  10.550026  4.289993 41.303389
556   2 0.0000   7.534895  9.512383  2.090861
557   2 0.0000   7.534982  9.512231 11.893993
558   2 0.0000   7.535069  9.512079 21.697125
559   2 0.0000   7.535157  9.511927 31.500257
560   2 0.0000   7.535244  9.511775 41.303389
561   2 0.0000   4.520112 14.734165  2.090861
562   2 0.0000   4.520199 14.734013 11.893993
563   2 0.0000   4.520287 14.733861 21.697125
564   2 0.0000   4.520374 14.733709 31.500257
565   2 0.0000   4.520461 14.733557 41.303389
566   2 0.0000   1.505330 19.955947  2.090861
567   2 0.0000   1.505417 19.955795 11.893993
568   2 0.0000   1.505504 19.955643 21.697125
569   2 0.0000   1.505591 19.955491 31.500257
570   2 0.0000   1.505679 19.955339 41.303389
571   2 0.0000  -1.509453 25.177729  2.090861
572   2 0.0000  -1.509366 25.177577 11.893993
573   2 0.0000  -1.509278 25.177425 21.697125
574   2 0.0000  -1.509191 25.177273 31.500257
575   2 0.0000  -1.509104 25.177121 41.303389
576   2 0.0000  16.579256  4.290601  2.090861
577   2 0.0000  16.579344  4.290449 11.893993
578   2 0.0000  16.579431  4.290297 21.697125
579   2 0.0000  16.579518  4.290145 31.500257
580   2 0.0000  16.579605  4.289993 41.303389
581   2 0.0000  13.564474  9.512383  2.090861
582   2 0.0000  13.564561  9.512231 11.893993
583   2 0.0000  13.564648  9.512079 21.697125
584   2 0.0000  13.564736  9.511927 31.500257
585   2 0.0000  13.564823  9.511775 41.303389
586   2 0.0000  10.549691 14.734165  2.090861
587   2 0.0000  10.549778 14.734013 11.893993
588   2 0.0000  10.549866 14.733861 21.697125
589   2 0.0000  10.549953 14.733709 31.500257
590   2 0.0000  10.550040 14.733557 41.303389
591   2 0.0000   7.534909 19.955947  2.090861
592   2 0.0000   7.534996 19.955795 11.893993
593   2 0.0000   7.535083 19.955643 21.697125
594   2 0.0000   7.535170 19.955491 31.500257
595   2 0.0000   7.535258 19.955339 41.303389
596   2 0.0000   4.520126 25.177729  2.090861
597   2 0.0000   4.520213 25.177577 11.893993
598   2 0.0000   4.520301 25.177425 21.697125
599   2 0.0000   4.520388 25.177273 31.500257
600   2 0.0000   4.520475 25.177121 41.303389
601   2 0.0000  22.608835  4.290601  2.090861
602   2 0.0000  22.608923  4.290449 11.893993
603   2 0.0000  22.609010  4.290297 21.697125
604   2 0.0000  22.609097  4.290145 31.500257
605   2 0.0000  22.609184  4.289993 41.303389
606   2 0.0000  19.594053  9.512383  2.090861
607   2 0.0000  19.594140  9.512231 11.893993
608   2 0.0000  19.594227  9.512079 21.697125
609   2 0.0000  19.594315  9.511927 31.500257
610   2 0.0000  19.594402  9.511775 41.303389
611   2 0.0000  16.579270 14.734165  2.090861
612   2 0.0000  16.579357 14.734013 11.893993
613   2 0.0000  16.579445 14.733861 21.697125
614   2 0.0000  16.579532 14.733709 31.500257
615   2 0.0000  16.579619 14.733557 41.303389
616   2 0.0000  13.564488 19.955947  2.090861
617   2 0.0000  13.564575 19.955795 11.893993
618   2 0.0000  13.564662 19.955643 21.697125
619   2 0.0000  13.564749 19.955491 31.500257
620   2 0.0000  13.564837 19.955339 41.303389
621   2 0.0000  10.549705 25.177729  2.090861
622   2 0.0000  10.549792 25.177577 11.893993
623   2 0.0000  10.549880 25.177425 21.697125
624   2 0.0000  10.549967 25.177273 31.500257
625   2 0.0000  10.550054 25.177121 41.303389
626   2 0.0000   0.053850  1.769238  2.090773
627   2 0.0000   0.053937  1.769086 11.893905
628   2 0.0000   0.054025  1.768934 21.697037
629   2 0.0000   0.054112  1.768782 31.500169
630   2 0.0000   0.054199  1.768629 41.303301
631   2 0.0000  -2.960932  6.991020  2.090773
632   2 0.0000  -2.960845  6.990868 11.893905
633   2 0.0000  -2.960758  6.990716 21.697037
634   2 0.0000  -2.960671  6.990564 31.500169
635   2 0.0000  -2.960583  6.990411 41.303301
636   2 0.0000  -5.975715 12.212802  2.090773
637   2 0.0000  -5.975628 12.212650 11.893905
638   2 0.0000  -5.975540 12.212498 21.697037
639   2 0.0000  -5.975453 12.212346 31.500169
640   2 0.0000  -5.975366 12.212193 41.303301
641   2 0.0000  -8.990498 17.434584  2.090773
642   2 0.0000  -8.990410 17.434432 11.893905
643   2 0.0000  -8.990323 17.434280 21.697037
644   2 0.0000  -8.990236 17.434128 31.500169
645   2 0.0000  -8.990148 17.433975 41.303301
646   2 0.0000 -12.005280 22.656366  2.090773