LAMMPS (29 Aug 2024)
OMP_NUM_THREADS environment is not set. Defaulting to 1 thread. (src/comm.cpp:98)
  using 1 OpenMP thread(s) per MPI task
# LAMMPS Quenching Script for Li2Mn3SbO8 - 5 K/ps
# VERY SLOW quench - mostly crystalline
units metal
atom_style charge
boundary p p p
processors * * *  # Use all available processors

# Read melted/liquid structure
read_data Li2Mn3SbO8_melted_liquid.data
Reading data file ...
  triclinic box = (-478.41697 -414.32232 -777.82955) to (508.56487 440.43123 826.84521) with tilt (-493.48979 0.014273769 -0.024880881)
WARNING: Triclinic box skew is large. LAMMPS will run inefficiently. (src/domain.cpp:221)
  1 by 2 by 3 MPI processor grid
  reading atoms ...
  3500 atoms
  reading velocities ...
  3500 velocities
  read_data CPU = 0.022 seconds

# Define potential
# Lennard-Jones + Coulomb potential for ceramics
# Assigns approximate charges based on oxidation states

# Set charges for each atom type
set type 1 charge 2.0
Setting atom values ...
  500 settings made for charge
set type 2 charge 3.0
Setting atom values ...
  750 settings made for charge
set type 3 charge -2.0
Setting atom values ...
  250 settings made for charge
set type 4 charge 1.0
Setting atom values ...
  2000 settings made for charge

# Use hybrid potential: LJ for short-range, Coulomb for long-range
pair_style hybrid/overlay lj/cut 10.0 coul/cut 12.0
pair_coeff * * lj/cut 0.010 3.0  # LJ parameters (epsilon=0.01 eV, sigma=3.0 Angstrom)
pair_coeff * * coul/cut  # Coulombic interactions

# Note: For better accuracy with long-range electrostatics, use:
# pair_style hybrid/overlay lj/cut 10.0 coul/long 12.0
# kspace_style pppm 1e-4
# But this requires more setup and is slower

# Neighbor list
neighbor 2.0 bin
neigh_modify every 1 delay 0 check yes

# STAGE 1: QUENCH from 3500K to 300K at 5 K/ps
# This will take 640.0 ps
fix 1 all npt temp 3500 300 $(100.0*dt) iso 1.0 1.0 $(1000.0*dt)
fix 1 all npt temp 3500 300 0.10000000000000000555 iso 1.0 1.0 $(1000.0*dt)
fix 1 all npt temp 3500 300 0.10000000000000000555 iso 1.0 1.0 1
timestep 0.001

# Output
thermo 1000
thermo_style custom step time temp press vol etotal ke pe density
dump 1 all custom 5000 Li2Mn3SbO8_quench_5Kps_trajectory.dump id type x y z vx vy vz

print "Starting QUENCH of Li2Mn3SbO8 from liquid at 3500K to 300K"
Starting QUENCH of Li2Mn3SbO8 from liquid at 3500K to 300K
print "Cooling rate: 5 K/ps - expecting crystalline"
Cooling rate: 5 K/ps - expecting crystalline
run 640000

CITE-CITE-CITE-CITE-CITE-CITE-CITE-CITE-CITE-CITE-CITE-CITE-CITE

Your simulation uses code contributions which should be cited:

- Type Label Framework: https://doi.org/10.1021/acs.jpcb.3c08419

@Article{Gissinger24,
 author = {Jacob R. Gissinger, Ilia Nikiforov, Yaser Afshar, Brendon Waters, Moon-ki Choi, Daniel S. Karls, Alexander Stukowski, Wonpil Im, Hendrik Heinz, Axel Kohlmeyer, and Ellad B. Tadmor},
 title = {Type Label Framework for Bonded Force Fields in LAMMPS},
 journal = {J. Phys. Chem. B},
 year =    2024,
 volume =  128,
 number =  13,
 pages =   {3282–-3297}
}

CITE-CITE-CITE-CITE-CITE-CITE-CITE-CITE-CITE-CITE-CITE-CITE-CITE

Generated 0 of 6 mixed pair_coeff terms from geometric mixing rule
Neighbor list info ...
  update: every = 1 steps, delay = 0 steps, check = yes
  max neighbors/atom: 2000, page size: 100000
  master list distance cutoff = 14
  ghost atom cutoff = 14
  binsize = 7, bins = 212 123 230
  2 neighbor lists, perpetual/occasional/extra = 2 0 0
  (1) pair lj/cut, perpetual, trim from (2)
      attributes: half, newton on, cut 12
      pair build: trim
      stencil: none
      bin: none
  (2) pair coul/cut, perpetual
      attributes: half, newton on
      pair build: half/bin/atomonly/newton/tri
      stencil: half/bin/3d/tri
      bin: standard
Per MPI rank memory allocation (min/avg/max) = 7.779 | 7.799 | 7.838 Mbytes
   Step          Time           Temp          Press          Volume         TotEng         KinEng         PotEng        Density    
         0   0              3483.1597      0.9553501      1.3537457e+09 -8476.5539      1575.3678     -10051.922      0.00013138733
      1000   1              3322.766       0.84000685     1.333924e+09  -8552.402       1502.8248     -10055.227      0.0001333397 
      2000   2              3530.0136      1.1058733      1.2818541e+09 -8462.2549      1596.559      -10058.814      0.00013875607
      3000   3              3471.5269      0.97019854     1.3395503e+09 -8499.6758      1570.1065     -10069.782      0.00013277966
      4000   4              3464.7056      0.96972322     1.3645509e+09 -8492.4409      1567.0214     -10059.462      0.00013034693
      5000   5              3463.2439      1.0309034      1.3216609e+09 -8490.3278      1566.3603     -10056.688      0.00013457691
      6000   6              3566.4722      1.0559887      1.3076286e+09 -8453.6271      1613.0485     -10066.676      0.00013602106
      7000   7              3452.813       1.0104107      1.3380534e+09 -8501.6112      1561.6426     -10063.254      0.0001329282 
      8000   8              3440.4003      0.92589648     1.3967917e+09 -8497.1365      1556.0286     -10053.165      0.00012733826
      9000   9              3488.7328      0.98836851     1.3383417e+09 -8480.8981      1577.8884     -10058.787      0.00013289956
     10000   10             3437.8992      1.0043892      1.3009634e+09 -8494.1337      1554.8973     -10049.031      0.00013671793
     11000   11             3382.3058      1.0400913      1.3197402e+09 -8513.2198      1529.7535     -10042.973      0.00013477276
     12000   12             3418.3923      0.96391066     1.34961e+09   -8516.4751      1546.0747     -10062.55       0.00013178995
     13000   13             3506.25        0.94385777     1.2993559e+09 -8489.2745      1585.8111     -10075.086      0.00013688707
     14000   14             3455.1         1.0743655      1.2779402e+09 -8498.2873      1562.6769     -10060.964      0.00013918103
     15000   15             3360.0693      0.9424115      1.3245699e+09 -8544.6618      1519.6963     -10064.358      0.00013428135
     16000   16             3403.2171      0.97458802     1.336092e+09  -8520.9885      1539.2113     -10060.2        0.00013312334
     17000   17             3476.6379      1.015675       1.306884e+09  -8492.73        1572.4181     -10065.148      0.00013609856
     18000   18             3459.9469      0.9981998      1.2872854e+09 -8498.7375      1564.8691     -10063.607      0.00013817062
     19000   19             3407.353       0.90177784     1.3169691e+09 -8510.3739      1541.0819     -10051.456      0.00013505634
     20000   20             3379.2794      0.87315965     1.354636e+09  -8545.2474      1528.3847     -10073.632      0.00013130098
     21000   21             3404.6035      1.0163954      1.292418e+09  -8526.9607      1539.8383     -10066.799      0.0001376219 
     22000   22             3414.4509      1.0853262      1.2745373e+09 -8518.9541      1544.2921     -10063.246      0.00013955263
     23000   23             3366.4459      0.98799794     1.3090007e+09 -8541.1668      1522.5803     -10063.747      0.00013587849
     24000   24             3355.3726      0.96594204     1.3184285e+09 -8543.5607      1517.5721     -10061.133      0.00013490684
     25000   25             3431.3876      1.0956408      1.2709925e+09 -8519.0928      1551.9523     -10071.045      0.00013994185
     26000   26             3400.3782      1.1569896      1.2236436e+09 -8515.6402      1537.9273     -10053.568      0.00014535689
     27000   27             3366.5545      1.0160617      1.3120015e+09 -8534.5411      1522.6294     -10057.171      0.0001355677 
     28000   28             3362.3958      1.1317999      1.3046867e+09 -8553.3864      1520.7486     -10074.135      0.00013632777
     29000   29             3348.5803      0.92537758     1.2764024e+09 -8540.8664      1514.5001     -10055.366      0.00013934871
     30000   30             3285.1807      1.0259091      1.2838614e+09 -8559.4726      1485.8256     -10045.298      0.00013853912
     31000   31             3329.0186      0.91882173     1.3266883e+09 -8567.8872      1505.6527     -10073.54       0.00013406693
     32000   32             3385.8768      0.98245694     1.2968605e+09 -8529.5139      1531.3686     -10060.882      0.00013715047
     33000   33             3341.0474      0.98102029     1.24687e+09   -8561.767       1511.0931     -10072.86       0.00014264922
     34000   34             3299.8676      1.0680519      1.2776543e+09 -8539.2245      1492.4683     -10031.693      0.00013921217
     35000   35             3311.7843      0.87794014     1.3091365e+09 -8572.9082      1497.8579     -10070.766      0.00013586439
     36000   36             3298.6498      0.96369524     1.2856741e+09 -8576.6352      1491.9175     -10068.553      0.00013834379
     37000   37             3265.814       1.0058798      1.2414156e+09 -8596.587       1477.0664     -10073.653      0.00014327598
     38000   38             3260.7972      1.0061013      1.2890161e+09 -8596.4016      1474.7974     -10071.199      0.00013798511
     39000   39             3313.304       1.0030993      1.3157465e+09 -8575.2122      1498.5453     -10073.757      0.00013518184
     40000   40             3291.6653      1.0482371      1.2684849e+09 -8557.7087      1488.7585     -10046.467      0.00014021848
     41000   41             3333.6665      0.94993544     1.258643e+09  -8561.8162      1507.7548     -10069.571      0.00014131492
     42000   42             3323.8261      0.9455575      1.2876702e+09 -8565.9255      1503.3042     -10069.23       0.00013812934
     43000   43             3364.5074      1.0898249      1.2869682e+09 -8539.0814      1521.7036     -10060.785      0.00013820468
     44000   44             3244.2983      1.1044304      1.2544406e+09 -8598.9256      1467.3353     -10066.261      0.00014178832
     45000   45             3237.5096      1.1020975      1.2540685e+09 -8619.1781      1464.2649     -10083.443      0.00014183039
     46000   46             3233.194       1.078114       1.2902078e+09 -8596.2853      1462.313      -10058.598      0.00013785766
     47000   47             3315.2581      1.0549778      1.2768252e+09 -8580.8904      1499.4291     -10080.319      0.00013930257
     48000   48             3280.479       1.0337827      1.2369226e+09 -8579.5324      1483.6991     -10063.232      0.00014379641
     49000   49             3302.2316      1.0086314      1.2463395e+09 -8554.9215      1493.5374     -10048.459      0.00014270994
     50000   50             3188.254       1.0562648      1.2912969e+09 -8634.35        1441.9875     -10076.338      0.00013774139
     51000   51             3255.4802      0.93726813     1.2691332e+09 -8589.9741      1472.3926     -10062.367      0.00014014686
     52000   52             3258.0558      1.0469859      1.233271e+09  -8588.0274      1473.5575     -10061.585      0.00014422218
     53000   53             3250.4553      1.0104066      1.2437452e+09 -8602.7064      1470.12       -10072.826      0.00014300761
     54000   54             3122.1644      0.93823796     1.2683319e+09 -8653.244       1412.0964     -10065.34       0.0001402354 
     55000   55             3263.5823      0.93881952     1.2571845e+09 -8589.0826      1476.0571     -10065.14       0.00014147886
     56000   56             3251.1343      1.1134489      1.240172e+09  -8583.7562      1470.4271     -10054.183      0.00014341965
     57000   57             3195.1495      1.0048229      1.2483159e+09 -8612.4191      1445.1062     -10057.525      0.00014248399
     58000   58             3127.7932      0.84510443     1.2654509e+09 -8633.807       1414.6422     -10048.449      0.00014055467
     59000   59             3163.8992      1.0047971      1.2493264e+09 -8632.7983      1430.9723     -10063.771      0.00014236874
     60000   60             3240.5393      1.0118156      1.2006797e+09 -8598.1662      1465.6351     -10063.801      0.00014813696
     61000   61             3261.8065      1.0796652      1.2334193e+09 -8573.9523      1475.2539     -10049.206      0.00014420483
     62000   62             3153.5446      0.95494022     1.2760506e+09 -8637.2783      1426.2891     -10063.567      0.00013938713
     63000   63             3169.3455      1.0314387      1.2359654e+09 -8636.9366      1433.4355     -10070.372      0.00014390778
     64000   64             3189.7675      1.0461601      1.2123116e+09 -8639.774       1442.672      -10082.446      0.0001467156 
     65000   65             3235.4809      0.98029865     1.239072e+09  -8592.1507      1463.3473     -10055.498      0.00014354697
     66000   66             3182.032       0.91546553     1.2539873e+09 -8639.2411      1439.1734     -10078.414      0.00014183958
     67000   67             3098.5303      1.0617946      1.216343e+09  -8674.9467      1401.4071     -10076.354      0.00014622934
     68000   68             3214.6788      1.0172968      1.2011474e+09 -8611.0735      1453.939      -10065.012      0.00014807927
     69000   69             3122.5546      0.99042066     1.258117e+09  -8645.4509      1412.2729     -10057.724      0.00014137399
     70000   70             3113.1421      0.80133489     1.2634266e+09 -8665.7706      1408.0158     -10073.786      0.00014077987
     71000   71             3155.6102      0.93015168     1.2263293e+09 -8641.8455      1427.2233     -10069.069      0.00014503856
     72000   72             3141.9342      1.0383398      1.2172599e+09 -8647.4034      1421.0379     -10068.441      0.00014611918
     73000   73             3147.4392      0.9383268      1.2190395e+09 -8644.051       1423.5277     -10067.579      0.00014590588
     74000   74             3123.6154      1.0610174      1.2264971e+09 -8656.0079      1412.7527     -10068.761      0.00014501871
     75000   75             3193.9861      0.97702582     1.2239054e+09 -8615.8633      1444.58       -10060.443      0.0001453258 
     76000   76             3097.3301      1.0638423      1.2034428e+09 -8678.788       1400.8643     -10079.652      0.00014779683
     77000   77             3065.6069      0.98029969     1.2101145e+09 -8685.4017      1386.5165     -10071.918      0.00014698198
     78000   78             3097.9995      0.94637791     1.2441707e+09 -8665.5212      1401.1671     -10066.688      0.0001429587 
     79000   79             3145.3453      0.96095257     1.2205361e+09 -8657.8089      1422.5807     -10080.39       0.00014572697
     80000   80             3042.73        0.94068611     1.1762179e+09 -8703.0145      1376.1697     -10079.184      0.00015121776
     81000   81             3089.1108      1.1143732      1.1959778e+09 -8683.6098      1397.1469     -10080.757      0.00014871934
     82000   82             3164.0025      1.0015514      1.22015e+09   -8631.852       1431.019      -10062.871      0.00014577308
     83000   83             3120.4934      0.93258459     1.2238843e+09 -8654.2062      1411.3407     -10065.547      0.00014532831
     84000   84             3062.0251      0.96444735     1.1797244e+09 -8677.3246      1384.8965     -10062.221      0.00015076829
     85000   85             3055.1208      1.0147398      1.1659008e+09 -8699.9713      1381.7739     -10081.745      0.00015255589
     86000   86             3131.3237      1.1116413      1.229952e+09  -8652.6054      1416.239      -10068.844      0.00014461136
     87000   87             3100.9276      1.0503208      1.2241595e+09 -8679.2074      1402.4914     -10081.699      0.00014529564
     88000   88             3027.8041      0.94163531     1.1953599e+09 -8702.6348      1369.419      -10072.054      0.00014879622
     89000   89             3030.422       0.95678594     1.1892831e+09 -8696.56        1370.6031     -10067.163      0.00014955651
     90000   90             3031.0651      0.97858526     1.197398e+09  -8707.3001      1370.8939     -10078.194      0.00014854295
     91000   91             3095.8313      1.0795962      1.2141026e+09 -8658.2859      1400.1865     -10058.472      0.00014649918
     92000   92             3066.9709      0.86361475     1.20515e+09   -8683.2776      1387.1334     -10070.411      0.00014758747
     93000   93             2966.5083      1.0383815      1.169519e+09  -8735.6418      1341.6961     -10077.338      0.00015208391
     94000   94             3045.7608      1.0047945      1.1878015e+09 -8695.2927      1377.5405     -10072.833      0.00014974305
     95000   95             3100.7538      1.0658897      1.2224908e+09 -8667.2459      1402.4128     -10069.659      0.00014549397
     96000   96             3067.9936      0.9450193      1.1776845e+09 -8681.9899      1387.596      -10069.586      0.00015102943
     97000   97             3014.8511      1.0140467      1.1526977e+09 -8709.5227      1363.5606     -10073.083      0.00015430328
     98000   98             2988.6373      0.94433374     1.1873363e+09 -8731.8566      1351.7046     -10083.561      0.00014980173
     99000   99             3015.0843      0.95714505     1.2081895e+09 -8715.2414      1363.6661     -10078.908      0.00014721617
    100000   100            3041.1727      1.047175       1.1811244e+09 -8701.4433      1375.4654     -10076.909      0.00015058958
    101000   101            2994.2803      0.90484991     1.156967e+09  -8730.0567      1354.2568     -10084.314      0.00015373388
    102000   102            2944.9098      1.1413574      1.1827341e+09 -8736.6438      1331.9275     -10068.571      0.00015038463
    103000   103            2979.6196      0.97870755     1.2432634e+09 -8716.9517      1347.6261     -10064.578      0.00014306302
    104000   104            2949.3679      0.96734159     1.1815552e+09 -8734.9549      1333.9438     -10068.899      0.00015053468
    105000   105            2984.0545      0.97893933     1.1587478e+09 -8738.3764      1349.6319     -10088.008      0.00015349762
    106000   106            3005.5932      1.1045359      1.1722918e+09 -8721.4041      1359.3734     -10080.778      0.00015172419
    107000   107            2994.0028      0.85581534     1.1856258e+09 -8724.4227      1354.1313     -10078.554      0.00015001784
    108000   108            2948.0651      0.96904452     1.1473337e+09 -8732.6222      1333.3546     -10065.977      0.00015502467
    109000   109            2873.6097      1.0772         1.1265119e+09 -8779.9426      1299.6798     -10079.622      0.00015789006
    110000   110            2946.4355      0.87776627     1.1727438e+09 -8747.2762      1332.6175     -10079.894      0.00015166572
    111000   111            2976.4824      0.93193775     1.1865153e+09 -8727.2264      1346.2072     -10073.434      0.00014990538
    112000   112            2920.1229      0.87048036     1.156169e+09  -8734.6529      1320.7168     -10055.37       0.00015383999
    113000   113            2893.9471      1.0694873      1.1416763e+09 -8766.5322      1308.878      -10075.41       0.00015579287
    114000   114            2956.8219      1.0731357      1.1577232e+09 -8736.8678      1337.3151     -10074.183      0.00015363346
    115000   115            2960.7638      0.964742       1.1938092e+09 -8734.6624      1339.0979     -10073.76       0.00014898949
    116000   116            2910.4043      1.0483077      1.1610114e+09 -8768.7355      1316.3213     -10085.057      0.00015319835
    117000   117            2879.6877      1.1581402      1.1213931e+09 -8773.315       1302.4287     -10075.744      0.00015861077
    118000   118            2924.7426      0.97644028     1.1422795e+09 -8759.5732      1322.8062     -10082.379      0.00015571061
    119000   119            2905.843       1.0506791      1.1602297e+09 -8767.1895      1314.2583     -10081.448      0.00015330157
    120000   120            2934.4064      1.0181479      1.1495708e+09 -8765.8196      1327.177      -10092.997      0.00015472299
    121000   121            2932.0522      1.0946938      1.1113595e+09 -8739.6644      1326.1122     -10065.777      0.00016004276
    122000   122            2884.7124      1.0085714      1.1382332e+09 -8771.8379      1304.7013     -10076.539      0.00015626414
    123000   123            2774.2342      0.95738028     1.1803387e+09 -8825.0297      1254.7341     -10079.764      0.00015068983
    124000   124            2879.3382      0.92820453     1.1482087e+09 -8787.7003      1302.2707     -10089.971      0.00015490653
    125000   125            2898.5962      0.99664288     1.1239932e+09 -8759.8193      1310.9807     -10070.8        0.00015824387
    126000   126            2938.9136      0.97021427     1.1255628e+09 -8741.5114      1329.2155     -10070.727      0.00015802319
    127000   127            2828.6024      0.99352768     1.151438e+09  -8779.6321      1279.3238     -10058.956      0.00015447209
    128000   128            2835.1022      0.91247874     1.1603765e+09 -8805.5343      1282.2635     -10087.798      0.00015328217
    129000   129            2901.109       0.96502555     1.1124459e+09 -8756.3417      1312.1172     -10068.459      0.00015988645
    130000   130            2857.1638      0.98135892     1.0980673e+09 -8773.8472      1292.2416     -10066.089      0.00016198009
    131000   131            2848.0626      1.0205713      1.1302533e+09 -8797.5197      1288.1253     -10085.645      0.00015736741
    132000   132            2816.3138      1.0008036      1.1458109e+09 -8808.5115      1273.7659     -10082.277      0.0001552307 
    133000   133            2801.0846      0.95335221     1.1216469e+09 -8816.0699      1266.878      -10082.948      0.00015857488
    134000   134            2866.8504      1.1374354      1.0900845e+09 -8779.8939      1296.6227     -10076.517      0.00016316628
    135000   135            2835.7673      0.99850373     1.1159624e+09 -8792.347       1282.5644     -10074.911      0.00015938263
    136000   136            2880.4945      0.9466971      1.1304339e+09 -8781.3062      1302.7937     -10084.1        0.00015734226
    137000   137            2758.3593      1.0303057      1.120614e+09  -8832.3881      1247.5542     -10079.942      0.00015872105
    138000   138            2820.8317      0.91363141     1.0753664e+09 -8785.6339      1275.8093     -10061.443      0.00016539947
    139000   139            2850.4266      1.1077731      1.0747719e+09 -8801.6683      1289.1945     -10090.863      0.00016549095
    140000   140            2818.555       1.0490644      1.1375795e+09 -8805.5987      1274.7796     -10080.378      0.00015635394
    141000   141            2761.1074      1.0102323      1.125784e+09  -8813.2386      1248.7971     -10062.036      0.00015799214
    142000   142            2761.5486      1.0005105      1.0913159e+09 -8840.3146      1248.9966     -10089.311      0.00016298217
    143000   143            2787.5304      0.93958518     1.0881249e+09 -8800.0527      1260.7477     -10060.8        0.00016346012
    144000   144            2842.5659      1.0944306      1.1143258e+09 -8790.0745      1285.6393     -10075.714      0.00015961672
    145000   145            2807.6153      1.0224616      1.1367268e+09 -8813.795       1269.8317     -10083.627      0.00015647122
    146000   146            2739.1341      0.96779042     1.0846065e+09 -8844.6609      1238.859      -10083.52       0.00016399038
    147000   147            2755.8012      1.0073465      1.0687161e+09 -8840.2017      1246.3972     -10086.599      0.0001664287 
    148000   148            2777.2594      1.0648806      1.0974088e+09 -8825.1872      1256.1024     -10081.29       0.00016207727
    149000   149            2782.9521      0.96572619     1.1051975e+09 -8819.9534      1258.677      -10078.63       0.00016093506
    150000   150            2790.7196      1.077082       1.0780902e+09 -8820.8972      1262.1901     -10083.087      0.00016498159
    151000   151            2761.5184      1.1112444      1.0577917e+09 -8833.6899      1248.983      -10082.673      0.0001681475 
    152000   152            2725.2964      0.91983563     1.1088254e+09 -8858.2105      1232.6005     -10090.811      0.00016040851
    153000   153            2735.4873      0.98381472     1.1187915e+09 -8846.8308      1237.2096     -10084.04       0.00015897961
    154000   154            2725.5935      0.92548671     1.0803996e+09 -8854.3997      1232.7348     -10087.135      0.00016462893
    155000   155            2790.6793      1.1504617      1.0629163e+09 -8819.7499      1262.1719     -10081.922      0.00016733681
    156000   156            2707.2247      0.93726452     1.0768681e+09 -8859.0199      1224.427      -10083.447      0.00016516882
    157000   157            2706.0482      0.93936649     1.0953033e+09 -8862.988       1223.8948     -10086.883      0.00016238884
    158000   158            2709.7369      1.0187419      1.0880905e+09 -8862.1315      1225.5632     -10087.695      0.00016346529
    159000   159            2725.1362      1.0465352      1.0511016e+09 -8847.5065      1232.528      -10080.034      0.00016921774
    160000   160            2685.4175      1.1195238      1.0472316e+09 -8856.8853      1214.564      -10071.449      0.00016984308
    161000   161            2646.749       1.0146478      1.0855817e+09 -8877.2701      1197.0749     -10074.345      0.00016384306
    162000   162            2675.3683      0.93666885     1.0912668e+09 -8870.7933      1210.0189     -10080.812      0.0001629895 
    163000   163            2750.0675      1.0438609      1.0511859e+09 -8824.8877      1243.804      -10068.692      0.00016920416
    164000   164            2724.8588      0.93796951     1.0512114e+09 -8855.4556      1232.4025     -10087.858      0.00016920005
    165000   165            2678.5091      1.0834848      1.0714086e+09 -8858.1226      1211.4394     -10069.562      0.00016601046
    166000   166            2628.3433      0.84059829     1.0767344e+09 -8891.5214      1188.7504     -10080.272      0.00016518933
    167000   167            2614.8811      1.0360838      1.060307e+09  -8914.8485      1182.6617     -10097.51       0.00016774861
    168000   168            2700.1563      1.0972322      1.0503456e+09 -8863.65        1221.2301     -10084.88       0.00016933953
    169000   169            2653.957       1.0047006      1.0619262e+09 -8881.439       1200.335      -10081.774      0.00016749284
    170000   170            2623.0186      0.97213685     1.0738778e+09 -8906.4711      1186.3421     -10092.813      0.00016562875
    171000   171            2627.6549      1.0931122      1.0543809e+09 -8888.9606      1188.439      -10077.4        0.00016869143
    172000   172            2650.4105      1.0595437      1.0243009e+09 -8885.6439      1198.731      -10084.375      0.0001736453 
    173000   173            2667.5828      0.98668614     1.0430836e+09 -8879.5254      1206.4977     -10086.023      0.00017051848
    174000   174            2695.5357      1.0115125      1.0785612e+09 -8865.8413      1219.1402     -10084.982      0.00016490953
    175000   175            2628.709       1.0508628      1.0651176e+09 -8902.448       1188.9158     -10091.364      0.00016699098
    176000   176            2557.5766      0.97219666     1.0488279e+09 -8929.2103      1156.744      -10085.954      0.00016958457
    177000   177            2619.1271      1.0628616      1.0359609e+09 -8904.1626      1184.5821     -10088.745      0.00017169087
    178000   178            2601.1737      0.98430235     1.0372958e+09 -8886.3425      1176.4621     -10062.805      0.00017146991
    179000   179            2596.2305      1.0360944      1.0493629e+09 -8913.3816      1174.2264     -10087.608      0.00016949811
    180000   180            2621.4619      0.91187031     1.0477555e+09 -8902.4318      1185.6381     -10088.07       0.00016975814
    181000   181            2654.0142      1.0623133      1.0212477e+09 -8890.9513      1200.3609     -10091.312      0.00017416443
    182000   182            2548.401       1.0149413      1.0138807e+09 -8943.7325      1152.594      -10096.326      0.00017542995
    183000   183            2554.0235      0.93936283     1.0391183e+09 -8924.4771      1155.137      -10079.614      0.00017116918
    184000   184            2592.2433      0.94543132     1.0632446e+09 -8915.0074      1172.423      -10087.43       0.00016728515
    185000   185            2563.596       1.0850223      1.0046356e+09 -8914.7924      1159.4664     -10074.259      0.00017704432
    186000   186            2490.0846      0.94746991     9.9534535e+08 -8959.5026      1126.2186     -10085.721      0.0001786968 
    187000   187            2557.913       1.0732883      1.0272706e+09 -8926.2735      1156.8961     -10083.17       0.00017314331
    188000   188            2654.9012      1.0797201      1.0378328e+09 -8884.7908      1200.762      -10085.553      0.00017138119
    189000   189            2561.2225      1.010575       1.0257359e+09 -8917.8885      1158.3929     -10076.281      0.00017340236
    190000   190            2582.4984      0.94725905     9.8705905e+08 -8908.06        1168.0156     -10076.076      0.00018019695
    191000   191            2518.1349      0.97324704     9.9662509e+08 -8942.7778      1138.9052     -10081.683      0.00017846734
    192000   192            2527.2742      0.92738441     1.034912e+09  -8936.7045      1143.0387     -10079.743      0.00017186488
    193000   193            2576.0918      1.0023334      1.0236795e+09 -8905.2539      1165.118      -10070.372      0.0001737507 
    194000   194            2547.9063      0.9960172      1.0067521e+09 -8902.7217      1152.3702     -10055.092      0.00017667212
    195000   195            2482.3759      1.0353616      1.0000879e+09 -8970.6258      1122.7321     -10093.358      0.0001778494 
    196000   196            2567.0064      1.0180479      1.0092666e+09 -8917.5294      1161.0088     -10078.538      0.00017623195
    197000   197            2505.2937      1.0285628      1.0385857e+09 -8963.775       1133.0974     -10096.872      0.00017125696
    198000   198            2471.7629      0.95449672     1.0275756e+09 -8978.9993      1117.932      -10096.931      0.00017309192
    199000   199            2473.4197      1.1356069      9.795673e+08  -8965.6177      1118.6813     -10084.299      0.0001815751 
    200000   200            2527.6877      1.0791897      9.8212769e+08 -8944.4503      1143.2257     -10087.676      0.00018110174
    201000   201            2495.7082      0.98660096     1.0061742e+09 -8962.8103      1128.762      -10091.572      0.00017677359
    202000   202            2467.7256      1.1049341      1.0169435e+09 -8963.6464      1116.106      -10079.752      0.00017490158
    203000   203            2492.0017      0.8022053      9.8254523e+08 -8965.5942      1127.0856     -10092.68       0.00018102478
    204000   204            2510.4541      0.96801368     9.4585154e+08 -8966.2459      1135.4313     -10101.677      0.00018804751
    205000   205            2446.4724      1.0786214      9.7468783e+08 -8974.5172      1106.4936     -10081.011      0.0001824841 
    206000   206            2423.0823      0.96816316     1.0027017e+09 -8989.1385      1095.9147     -10085.053      0.00017738579
    207000   207            2425.8174      0.93330698     1.0008017e+09 -8994.9131      1097.1517     -10092.065      0.00017772255
    208000   208            2492.887       1.0753834      9.7593172e+08 -8962.8747      1127.486      -10090.361      0.00018225151
    209000   209            2444.3936      1.0147116      9.596035e+08  -8989.6933      1105.5534     -10095.247      0.00018535263
    210000   210            2426.0292      1.0465782      9.9328027e+08 -8989.5649      1097.2475     -10086.812      0.00017906832
    211000   211            2471.3204      0.85084279     1.0200705e+09 -8957.7338      1117.7319     -10075.466      0.00017436544
    212000   212            2488.5152      1.0819485      9.8887225e+08 -8967.3789      1125.5088     -10092.888      0.00017986654
    213000   213            2361.2687      0.87706662     9.6819872e+08 -9019.5688      1067.9575     -10087.526      0.00018370715
    214000   214            2443.784       1.1571496      9.6585495e+08 -8993.4037      1105.2777     -10098.681      0.00018415294
    215000   215            2427.0238      0.94069016     9.7792589e+08 -8977.309       1097.6973     -10075.006      0.00018187987
    216000   216            2440.1187      1.0220427      9.821966e+08  -8988.8531      1103.6199     -10092.473      0.00018108903
    217000   217            2412.2155      1.0199695      9.5088374e+08 -9004.554       1090.9998     -10095.554      0.00018705234
    218000   218            2394.6116      1.0232277      9.3442779e+08 -9017.4929      1083.0379     -10100.531      0.00019034647
    219000   219            2455.194       0.89146973     9.6583374e+08 -8989.8513      1110.4382     -10100.29       0.00018415699
    220000   220            2426.1111      0.95743667     9.8428729e+08 -8980.7579      1097.2846     -10078.042      0.00018070439
    221000   221            2470.4429      1.0769857      9.6483434e+08 -8972.9741      1117.335      -10090.309      0.00018434774
    222000   222            2384.6073      1.0244579      9.4250814e+08 -9017.5569      1078.5132     -10096.07       0.00018871458
    223000   223            2379.265       0.99027516     9.4660906e+08 -9020.6456      1076.0969     -10096.743      0.00018789703
    224000   224            2361.1356      0.89804399     9.5848873e+08 -9024.9801      1067.8973     -10092.877      0.0001855682 
    225000   225            2365.7529      0.93943136     9.5647204e+08 -9023.5552      1069.9857     -10093.541      0.00018595947
    226000   226            2382.1145      0.95757066     9.3717945e+08 -9013.5828      1077.3857     -10090.969      0.00018978759
    227000   227            2387.6528      1.0284689      9.2539287e+08 -9024.1277      1079.8906     -10104.018      0.00019220488
    228000   228            2346.2519      0.98811921     9.4081046e+08 -9026.5542      1061.1658     -10087.72       0.00018905511
    229000   229            2303.0457      0.90502365     9.8139001e+08 -9051.1789      1041.6244     -10092.803      0.00018123786
    230000   230            2358.7585      0.97117924     9.559535e+08  -9038.9309      1066.8222     -10105.753      0.00018606034
    231000   231            2361.2651      0.87830377     9.2910664e+08 -9011.599       1067.9559     -10079.555      0.00019143661
    232000   232            2317.8549      1.0965478      9.2803938e+08 -9035.6837      1048.3223     -10084.006      0.00019165677
    233000   233            2318.1235      0.96717533     9.471462e+08  -9027.6429      1048.4438     -10076.087      0.00018779047
    234000   234            2301.6984      0.97647364     9.603261e+08  -9044.3622      1041.015      -10085.377      0.00018521316
    235000   235            2358.2158      0.925643       9.2788678e+08 -9030.0185      1066.5768     -10096.595      0.00019168829
    236000   236            2332.5119      1.0834303      9.1147338e+08 -9045.0807      1054.9514     -10100.032      0.00019514012
    237000   237            2323.5299      1.0531792      9.2101549e+08 -9048.9565      1050.889      -10099.846      0.00019311839
    238000   238            2243.7364      0.89988393     9.3496577e+08 -9069.375       1014.7999     -10084.175      0.00019023694
    239000   239            2315.0072      1.0965093      9.332073e+08  -9047.9328      1047.0343     -10094.967      0.00019059541
    240000   240            2328.3781      1.0607372      9.122754e+08  -9034.1034      1053.0818     -10087.185      0.00019496857
    241000   241            2295.8023      1.0015661      9.0137057e+08 -9060.2121      1038.3483     -10098.56       0.00019732731
    242000   242            2234.4073      0.91760272     9.2136526e+08 -9070.6293      1010.5805     -10081.21       0.00019304508
    243000   243            2258.2727      1.0543018      9.4649646e+08 -9072.813       1021.3744     -10094.187      0.00018791938
    244000   244            2269.3603      1.0773581      9.3077757e+08 -9071.0168      1026.3891     -10097.406      0.00019109295
    245000   245            2275.1559      1.006546       8.9766833e+08 -9055.537       1029.0103     -10084.547      0.00019814114
    246000   246            2300.0013      1.0477969      8.9743531e+08 -9045.8624      1040.2474     -10086.11       0.00019819259
    247000   247            2321.1233      0.98637599     9.1380939e+08 -9032.6718      1049.8005     -10082.472      0.00019464128
    248000   248            2226.6148      1.0008165      9.1604937e+08 -9080.0878      1007.0561     -10087.144      0.00019416533
    249000   249            2252.1324      1.0455364      9.0991681e+08 -9078.0806      1018.5973     -10096.678      0.00019547395
    250000   250            2229.6948      0.91695401     9.0775231e+08 -9081.9266      1008.4491     -10090.376      0.00019594005
    251000   251            2262.0607      1.0300006      9.0595571e+08 -9077.5105      1023.0877     -10100.598      0.00019632861
    252000   252            2259.3091      1.0064605      9.0325192e+08 -9070.2425      1021.8431     -10092.086      0.0001969163 
    253000   253            2236.3102      0.89582984     8.997846e+08  -9101.5885      1011.4412     -10113.03       0.00019767512
    254000   254            2215.1201      1.0982557      8.9411869e+08 -9090.7579      1001.8573     -10092.615      0.00019892776
    255000   255            2171.1623      1.1159936      8.8542479e+08 -9093.214       981.97601     -10075.19       0.00020088101
    256000   256            2205.1448      0.95378502     8.8292881e+08 -9098.6309      997.34563     -10095.977      0.00020144889
    257000   257            2155.217       0.93145996     9.0892376e+08 -9110.6257      974.76423     -10085.39       0.00019568751
    258000   258            2263.552       1.113249       9.156529e+08  -9051.8584      1023.7621     -10075.621      0.0001942494 
    259000   259            2221.4541      1.0989145      8.8807766e+08 -9099.7382      1004.722      -10104.46       0.00020028094
    260000   260            2196.8458      0.93627229     8.60156e+08   -9091.7921      993.59215     -10085.384      0.00020678229
    261000   261            2196.7468      0.99668151     8.7561155e+08 -9105.3388      993.54738     -10098.886      0.00020313235
    262000   262            2110.5297      0.95139099     8.9931749e+08 -9139.0254      954.55303     -10093.578      0.00019777779
    263000   263            2168.8427      0.99809714     8.9507387e+08 -9121.6752      980.92689     -10102.602      0.00019871547
    264000   264            2165.3772      0.97156395     8.7425739e+08 -9106.8682      979.35952     -10086.228      0.00020344698
    265000   265            2202.7667      1.046112       8.6379355e+08 -9104.8628      996.27006     -10101.133      0.0002059115 
    266000   266            2192.1814      1.0026481      8.8678303e+08 -9087.4291      991.48254     -10078.912      0.00020057333
    267000   267            2129.577       0.85962997     9.1620863e+08 -9139.7241      963.16773     -10102.892      0.00019413158
    268000   268            2103.9959      1.0255166      8.8589366e+08 -9143.4796      951.59789     -10095.077      0.0002007747 
    269000   269            2149.2758      0.97223894     8.6285575e+08 -9121.3008      972.07713     -10093.378      0.0002061353 
    270000   270            2185.5569      1.1027965      8.6572482e+08 -9102.0407      988.48638     -10090.527      0.00020545215
    271000   271            2199.1156      1.0657199      8.8115646e+08 -9081.8153      994.61875     -10076.434      0.00020185408
    272000   272            2137.76        0.94990442     8.8964644e+08 -9123.8535      966.86877     -10090.722      0.00019992777
    273000   273            2146.7013      1.0450558      8.5593837e+08 -9120.5313      970.91275     -10091.444      0.00020780121
    274000   274            2120.0072      1.0177731      8.3996211e+08 -9138.3787      958.8395      -10097.218      0.00021175363
    275000   275            2128.7155      0.87653954     8.548181e+08  -9129.8928      962.77809     -10092.671      0.00020807354
    276000   276            2077.3516      0.8489248      8.6610021e+08 -9150.048       939.54719     -10089.595      0.00020536311
    277000   277            2127.5993      1.1170741      8.6029027e+08 -9137.8825      962.27327     -10100.156      0.00020675002
    278000   278            2114.5634      0.92483979     8.4564096e+08 -9122.094       956.37739     -10078.471      0.00021033162
    279000   279            2053.2083      1.0108986      8.4305669e+08 -9164.6927      928.62759     -10093.32       0.00021097636
    280000   280            2100.8681      0.91686462     8.6111936e+08 -9144.4774      950.18325     -10094.661      0.00020655096
    281000   281            2113.5598      1.0129157      8.8441887e+08 -9120.959       955.92348     -10076.883      0.00020110949
    282000   282            2098.2118      0.96263941     8.6084562e+08 -9154.2625      948.98187     -10103.244      0.00020661664
    283000   283            2063.9078      1.1167377      8.3259306e+08 -9170.2575      933.4668      -10103.724      0.00021362781
    284000   284            2093.746       0.93112763     8.342054e+08  -9152.1076      946.96204     -10099.07       0.00021321491
    285000   285            2123.4132      1.146778       8.5459263e+08 -9125.8352      960.37999     -10086.215      0.00020812844
    286000   286            2071.4151      0.91703762     8.6661856e+08 -9147.4981      936.86221     -10084.36       0.00020524027
    287000   287            2009.6447      1.1136724      8.3932895e+08 -9185.0128      908.9246      -10093.937      0.00021191337
    288000   288            2063.4491      0.98831014     8.200631e+08  -9155.4876      933.25933     -10088.747      0.00021689188
    289000   289            2098.194       1.1544858      8.3367944e+08 -9143.1115      948.9738      -10092.085      0.00021334943
    290000   290            2063.4973      1.0129525      8.4611743e+08 -9161.3243      933.28113     -10094.605      0.00021021317
    291000   291            1986.5679      0.72041639     8.4347762e+08 -9192.2634      898.48741     -10090.751      0.00021087107
    292000   292            2048.8611      1.0168466      8.2780281e+08 -9162.8655      926.66145     -10089.527      0.00021486401
    293000   293            2052.4429      1.1519805      8.0168949e+08 -9175.9339      928.28143     -10104.215      0.00022186274
    294000   294            2039.604       1.2018163      7.8656823e+08 -9175.8725      922.47466     -10098.347      0.00022612791
    295000   295            1983.9956      0.86861272     8.2494253e+08 -9207.0874      897.32399     -10104.411      0.00021560899
    296000   296            2017.935       0.9243561      8.3995846e+08 -9196.4315      912.67417     -10109.106      0.00021175455
    297000   297            2019.3767      0.96943274     8.305129e+08  -9184.2333      913.32622     -10097.559      0.00021416287
    298000   298            2081.4726      1.0750383      8.0866706e+08 -9171.2174      941.41101     -10112.628      0.0002199484 
    299000   299            2004.8003      0.86012265     8.0800011e+08 -9188.3702      906.73357     -10095.104      0.00022012996
    300000   300            1988.4137      0.97000277     8.2473279e+08 -9193.5429      899.32225     -10092.865      0.00021566383
    301000   301            2002.26        0.95453114     8.4969303e+08 -9186.2734      905.58464     -10091.858      0.00020932857
    302000   302            2007.2357      0.95131426     8.4230526e+08 -9196.8234      907.83507     -10104.658      0.00021116457
    303000   303            2006.7879      1.0377528      7.9842368e+08 -9206.6254      907.63252     -10114.258      0.00022277023
    304000   304            1999.1175      1.0232856      7.9469549e+08 -9201.7415      904.16334     -10105.905      0.00022381532
    305000   305            1977.1893      0.97072687     8.0871234e+08 -9207.6713      894.24566     -10101.917      0.00021993609
    306000   306            1953.4234      1.1740254      8.2399993e+08 -9205.8537      883.49678     -10089.351      0.00021585564
    307000   307            2005.6489      0.96193989     8.1501984e+08 -9207.9136      907.1174      -10115.031      0.00021823399
    308000   308            1954.0056      1.0984793      7.8062285e+08 -9223.0343      883.7601      -10106.794      0.00022785014
    309000   309            1943.4164      1.0230972      7.7542719e+08 -9234.2305      878.97079     -10113.201      0.00022937683
    310000   310            1939.0971      0.98903414     7.9306123e+08 -9216.5981      877.01725     -10093.615      0.00022427654
    311000   311            1970.8347      0.89299316     8.0419786e+08 -9214.2441      891.37158     -10105.616      0.00022117073
    312000   312            1921.0174      0.98280044     8.0403438e+08 -9233.2122      868.84015     -10102.052      0.0002212157 
    313000   313            1923.4408      0.94533229     7.9241197e+08 -9236.3268      869.93618     -10106.263      0.0002244603 
    314000   314            1949.8097      1.0648078      7.7960822e+08 -9235.591       881.86238     -10117.453      0.00022814668
    315000   315            1951.8625      1.0137784      7.78488e+08   -9216.4727      882.7908      -10099.264      0.00022847498
    316000   316            1951.4626      1.0020414      7.9896489e+08 -9228.2184      882.60995     -10110.828      0.00022261933
    317000   317            1878.6857      0.97256369     8.0987861e+08 -9260.6563      849.69432     -10110.351      0.00021961937
    318000   318            1871.9637      1.1245772      7.8803752e+08 -9249.2128      846.65406     -10095.867      0.0002257063 
    319000   319            1891.5642      0.90774586     7.6763216e+08 -9248.163       855.519       -10103.682      0.00023170607
    320000   320            1954.6006      1.0087251      7.7047719e+08 -9218.8168      884.02921     -10102.846      0.00023085048
    321000   321            1872.6836      1.102647       7.8369675e+08 -9247.9401      846.97967     -10094.92       0.00022695645
    322000   322            1877.0087      0.8594594      7.8904573e+08 -9262.7258      848.93584     -10111.662      0.0002254179 
    323000   323            1892.76        1.037545       7.6981471e+08 -9245.7623      856.05986     -10101.822      0.00023104914
    324000   324            1905.218       1.0461407      7.3852326e+08 -9232.9804      861.69438     -10094.675      0.00024083876
    325000   325            1835.6199      0.90745448     7.4701661e+08 -9277.0687      830.21647     -10107.285      0.0002381005 
    326000   326            1892.073       0.93215386     7.6652441e+08 -9249.231       855.74915     -10104.98       0.00023204092
    327000   327            1862.6712      1.0352537      7.716277e+08  -9259.6532      842.45124     -10102.104      0.00023050628
    328000   328            1827.5221      1.1058382      7.6399943e+08 -9281.4756      826.55398     -10108.03       0.0002328078 
    329000   329            1844.1254      0.93726119     7.4855347e+08 -9276.5144      834.06333     -10110.578      0.00023761166
    330000   330            1850.8491      1.1056294      7.5193056e+08 -9275.3531      837.10435     -10112.457      0.00023654449
    331000   331            1899.197       1.0172611      7.6969027e+08 -9245.1529      858.97117     -10104.124      0.0002310865 
    332000   332            1859.183       1.0462843      7.9210413e+08 -9257.7058      840.87362     -10098.579      0.00022454753
    333000   333            1830.3543      0.90056234     7.749412e+08  -9277.952       827.83494     -10105.787      0.00022952068
    334000   334            1815.8491      1.082821       7.3776759e+08 -9279.6155      821.27452     -10100.89       0.00024108545
    335000   335            1842.1632      1.0876189      7.3686877e+08 -9255.3976      833.17586     -10088.573      0.00024137952
    336000   336            1825.0553      0.97662868     7.5415538e+08 -9271.4424      825.4383      -10096.881      0.00023584666
    337000   337            1818.5236      1.0193364      7.6422481e+08 -9290.7158      822.48413     -10113.2        0.00023273915
    338000   338            1790.9845      0.88780882     7.5021129e+08 -9298.1821      810.02871     -10108.211      0.00023708658
    339000   339            1823           1.2469347      7.2673004e+08 -9290.6235      824.50872     -10115.132      0.00024474705
    340000   340            1813.8109      0.88782895     7.2465272e+08 -9288.0636      820.35266     -10108.416      0.00024544865
    341000   341            1787.6479      0.97665982     7.3486957e+08 -9308.5907      808.51964     -10117.11       0.00024203619
    342000   342            1769.9113      1.0994061      7.4147549e+08 -9299.1096      800.4977      -10099.607      0.00023987985
    343000   343            1818.634       1.0562171      7.3780318e+08 -9276.7637      822.53406     -10099.298      0.00024107382
    344000   344            1777.9318      0.86079331     7.3240666e+08 -9302.9137      804.12522     -10107.039      0.0002428501 
    345000   345            1748.8546      1.0918427      7.3070042e+08 -9315.1056      790.97414     -10106.08       0.00024341717
    346000   346            1799.1187      1.0507369      7.2732164e+08 -9275.4952      813.70764     -10089.203      0.00024454797
    347000   347            1790.038       1.1093797      7.2803737e+08 -9296.6134      809.60061     -10106.214      0.00024430755
    348000   348            1739.7033      1.0049792      7.2802829e+08 -9324.2749      786.83518     -10111.11       0.0002443106 
    349000   349            1743.0691      1.0709124      7.1008843e+08 -9311.104       788.35745     -10099.461      0.00025048293
    350000   350            1725.0381      1.0148624      6.9477165e+08 -9334.5003      780.20241     -10114.703      0.00025600502
    351000   351            1716.5753      1.0220498      7.0933903e+08 -9334.1844      776.37483     -10110.559      0.00025074756
    352000   352            1748.1133      1.0085954      7.3000849e+08 -9322.5883      790.63885     -10113.227      0.00024364789
    353000   353            1747.9941      0.89444567     7.2856272e+08 -9301.4834      790.58496     -10092.068      0.00024413139
    354000   354            1756.5614      0.9711362      7.1491408e+08 -9315.5839      794.45978     -10110.044      0.00024879217
    355000   355            1717.2547      1.0220927      7.0792648e+08 -9341.6814      776.68212     -10118.364      0.00025124788
    356000   356            1707.2194      0.99663744     7.0934818e+08 -9344.1422      772.14333     -10116.285      0.00025074432
    357000   357            1733.5735      0.99824457     7.0953191e+08 -9327.4624      784.06278     -10111.525      0.00025067939
    358000   358            1725.369       1.0937569      7.0819417e+08 -9322.4434      780.35203     -10102.795      0.00025115291
    359000   359            1733.702       0.99049299     7.0497423e+08 -9299.8949      784.12091     -10084.016      0.00025230005
    360000   360            1700.8666      0.77394445     7.0565779e+08 -9352.2662      769.27005     -10121.536      0.00025205564
    361000   361            1693.2751      1.0116638      7.0268643e+08 -9340.0473      765.83656     -10105.884      0.00025312148
    362000   362            1650.1777      0.95286286     7.0006679e+08 -9353.6658      746.34443     -10100.01       0.00025406866
    363000   363            1719.1494      1.0533648      6.9773654e+08 -9331.2593      777.53902     -10108.798      0.00025491718
    364000   364            1646.3716      0.96823301     6.9627862e+08 -9367.6571      744.623       -10112.28       0.00025545094
    365000   365            1665.8169      1.2276103      6.8440143e+08 -9352.8906      753.41775     -10106.308      0.00025988407
    366000   366            1682.6598      1.00527        6.689363e+08  -9346.6354      761.03545     -10107.671      0.00026589233
    367000   367            1679.9193      1.1290163      6.7698115e+08 -9356.95        759.796       -10116.746      0.00026273262
    368000   368            1653.3024      0.98191191     7.0489048e+08 -9373.0384      747.75769     -10120.796      0.00025233002
    369000   369            1647.9817      1.0181049      7.0262054e+08 -9357.3589      745.35121     -10102.71       0.00025314522
    370000   370            1648.9347      1.0165924      6.8675974e+08 -9363.274       745.78225     -10109.056      0.00025899164
    371000   371            1683.0126      0.79707935     6.7474419e+08 -9351.0575      761.19502     -10112.252      0.00026360365
    372000   372            1627.8704      1.2082804      6.759316e+08  -9371.0597      736.25527     -10107.315      0.00026314057
    373000   373            1625.5563      0.90414118     6.8244502e+08 -9362.2         735.20865     -10097.409      0.0002606291 
    374000   374            1615.6998      0.88791839     6.8628803e+08 -9384.2945      730.75072     -10115.045      0.00025916965
    375000   375            1618.1763      0.96908618     6.7127628e+08 -9379.7995      731.8708      -10111.67       0.00026496546
    376000   376            1634.6045      1.159512       6.5059035e+08 -9373.4339      739.30095     -10112.735      0.0002733902 
    377000   377            1638.1168      1.1411588      6.5876237e+08 -9369.2964      740.8895      -10110.186      0.00026999877
    378000   378            1645.2899      1.037103       6.7853484e+08 -9364.9971      744.13378     -10109.131      0.00026213102
    379000   379            1583.9238      0.98183058     6.8264345e+08 -9397.4831      716.37905     -10113.862      0.00026055334
    380000   380            1604.9647      0.91207643     6.7111991e+08 -9378.7559      725.89545     -10104.651      0.0002650272 
    381000   381            1604.4563      0.955973       6.5996344e+08 -9403.6106      725.66548     -10129.276      0.0002695074 
    382000   382            1559.3531      1.0501802      6.5682383e+08 -9396.6558      705.26616     -10101.922      0.00027079564
    383000   383            1618.6225      0.96864091     6.5676311e+08 -9388.3506      732.07262     -10120.423      0.00027082068
    384000   384            1575.3969      1.0238755      6.565807e+08  -9403.7545      712.52249     -10116.277      0.00027089592
    385000   385            1555.3428      0.94471371     6.5534663e+08 -9413.5426      703.45238     -10116.995      0.00027140603
    386000   386            1582.3857      1.001936       6.5566772e+08 -9392.9295      715.68339     -10108.613      0.00027127312
    387000   387            1580.7871      0.81106286     6.5305948e+08 -9402.1416      714.96035     -10117.102      0.00027235655
    388000   388            1558.7137      1.2333559      6.465422e+08  -9395.3318      704.977       -10100.309      0.00027510197
    389000   389            1545.5475      1.0044202      6.4074628e+08 -9404.6484      699.02215     -10103.671      0.00027759042
    390000   390            1540.0928      0.9641539      6.387679e+08  -9398.4151      696.55511     -10094.97       0.00027845017
    391000   391            1479.808       0.98326826     6.5001839e+08 -9440.285       669.28939     -10109.574      0.00027363077
    392000   392            1526.5179      0.95646656     6.5799549e+08 -9427.634       690.41542     -10118.049      0.00027031345
    393000   393            1576.9611      1.1436519      6.4769698e+08 -9403.2093      713.22995     -10116.439      0.00027461148
    394000   394            1543.9152      1.080869       6.3095188e+08 -9422.8671      698.28389     -10121.151      0.00028189952
    395000   395            1552.6569      1.0542125      6.2674992e+08 -9401.5442      702.23759     -10103.782      0.00028378947
    396000   396            1505.1527      0.98718432     6.3935212e+08 -9420.8306      680.75233     -10101.583      0.00027819573
    397000   397            1491.0789      0.85142905     6.4926339e+08 -9440.0423      674.38701     -10114.429      0.00027394896
    398000   398            1493.4225      0.89823873     6.3545633e+08 -9443.0568      675.44701     -10118.504      0.00027990126
    399000   399            1520.5351      1.0263808      6.0767074e+08 -9427.0072      687.70952     -10114.717      0.00029269968
    400000   400            1524.7326      1.0511717      6.1108928e+08 -9431.104       689.60798     -10120.712      0.00029106227
    401000   401            1496.353       1.1587977      6.264257e+08  -9442.1613      676.77239     -10118.934      0.00028393636
    402000   402            1487.1025      0.91084496     6.3457272e+08 -9446.5193      672.58855     -10119.108      0.00028029101
    403000   403            1468.2401      0.93021898     6.2894801e+08 -9459.0574      664.05748     -10123.115      0.00028279767
    404000   404            1459.3928      1.0280905      6.1742324e+08 -9454.5855      660.05599     -10114.641      0.00028807634
    405000   405            1469.9815      1.0270541      6.1024862e+08 -9454.7907      664.84506     -10119.636      0.00029146322
    406000   406            1489.0315      1.0289929      6.0975071e+08 -9433.6286      673.46104     -10107.09       0.00029170122
    407000   407            1429.4981      0.76388379     6.1737927e+08 -9462.0775      646.5352      -10108.613      0.00028809686
    408000   408            1457.7065      1.0380754      6.2843911e+08 -9465.5372      659.2933      -10124.831      0.00028302667
    409000   409            1482.0943      1.0620531      6.2744918e+08 -9452.0756      670.32345     -10122.399      0.0002834732 
    410000   410            1420.2507      0.98903355     6.0430541e+08 -9465.2989      642.35277     -10107.652      0.0002943297 
    411000   411            1439.1441      0.79584319     5.936964e+08  -9476.1051      650.89789     -10127.003      0.0002995892 
    412000   412            1475.7212      1.2628848      5.9924623e+08 -9453.9084      667.44101     -10121.349      0.0002968146 
    413000   413            1441.6158      1.0372357      6.0725861e+08 -9463.5586      652.01581     -10115.574      0.00029289832
    414000   414            1398.4806      0.99947523     6.0527079e+08 -9489.8132      632.50657     -10122.32       0.00029386026
    415000   415            1399.9102      0.93702877     5.8961664e+08 -9475.4066      633.15313     -10108.56       0.00030166216
    416000   416            1441.7441      1.0305804      5.6424672e+08 -9476.7257      652.07384     -10128.8        0.00031522563
    417000   417            1435.6828      1.0235961      5.7030607e+08 -9475.6479      649.33242     -10124.98       0.00031187645
    418000   418            1409.9771      0.95730402     5.8557493e+08 -9483.7563      637.70619     -10121.462      0.00030374427
    419000   419            1419.0109      1.3236596      5.9272032e+08 -9481.0772      641.79203     -10122.869      0.00030008256
    420000   420            1383.9918      0.71427568     5.9536155e+08 -9499.9824      625.95352     -10125.936      0.00029875129
    421000   421            1392.0739      1.1400682      5.9083237e+08 -9490.6827      629.60893     -10120.292      0.00030104144
    422000   422            1403.4281      0.81402035     5.7834932e+08 -9480.5068      634.74421     -10115.251      0.0003075391 
    423000   423            1348.9563      1.0775576      5.6670375e+08 -9505.5302      610.10762     -10115.638      0.00031385892
    424000   424            1359.8354      0.82488072     5.6310211e+08 -9500.2856      615.02804     -10115.314      0.00031586639
    425000   425            1370.7199      1.1128802      5.8148641e+08 -9495.3658      619.95093     -10115.317      0.00030587994
    426000   426            1386.9161      0.8823979      5.9830815e+08 -9496.9602      627.27616     -10124.236      0.00029727997
    427000   427            1348.1702      0.87490559     5.8852574e+08 -9511.6568      609.75211     -10121.409      0.00030222133
    428000   428            1329.6464      0.98605001     5.7085432e+08 -9531.3727      601.37411     -10132.747      0.00031157692
    429000   429            1342.3404      1.1029419      5.6212788e+08 -9515.7807      607.11539     -10122.896      0.00031641382
    430000   430            1349.6881      0.71971744     5.6070065e+08 -9496.8324      610.43862     -10107.271      0.00031721923
    431000   431            1357.3879      1.2159992      5.6271246e+08 -9508.2103      613.92109     -10122.131      0.00031608511
    432000   432            1310.5915      0.87829906     5.6831758e+08 -9528.5674      592.75597     -10121.323      0.00031296767
    433000   433            1334.9386      1.016323       5.6731931e+08 -9503.3356      603.7677      -10107.103      0.00031351838
    434000   434            1357.5257      0.74453027     5.5405677e+08 -9512.6693      613.98341     -10126.653      0.00032102311
    435000   435            1289.1564      1.1411235      5.4315602e+08 -9539.343       583.06128     -10122.404      0.00032746581
    436000   436            1319.0135      0.89790094     5.4149534e+08 -9528.0237      596.56506     -10124.589      0.0003284701 
    437000   437            1317.4098      0.89675612     5.5011948e+08 -9530.3984      595.83976     -10126.238      0.00032332073
    438000   438            1291.4058      1.0594128      5.5992197e+08 -9547.2015      584.07865     -10131.28       0.00031766038
    439000   439            1301.9464      0.93939622     5.5589559e+08 -9547.904       588.84594     -10136.75       0.00031996122
    440000   440            1324.683       1.0812841      5.3509044e+08 -9518.0172      599.12926     -10117.146      0.00033240181
    441000   441            1299.0825      0.92862006     5.2860014e+08 -9518.3678      587.55064     -10105.918      0.00033648313
    442000   442            1305.0294      1.0510327      5.3691122e+08 -9526.3977      590.24034     -10116.638      0.00033127456
    443000   443            1308.9232      1.0504016      5.4443874e+08 -9527.7014      592.00144     -10119.703      0.00032669429
    444000   444            1291.2198      0.84134112     5.4737049e+08 -9534.5794      583.99448     -10118.574      0.0003249445 
    445000   445            1261.2707      1.0769931      5.4221939e+08 -9541.9267      570.44909     -10112.376      0.00032803148
    446000   446            1249.0058      1.0489103      5.3015669e+08 -9557.9709      564.90189     -10122.873      0.00033549521
    447000   447            1282.2334      0.80100707     5.2076656e+08 -9554.2296      579.93011     -10134.16       0.00034154464
    448000   448            1253.6652      1.0415718      5.2100707e+08 -9562.1985      567.00925     -10129.208      0.00034138698
    449000   449            1230.6104      0.96534132     5.2848201e+08 -9572.6859      556.582       -10129.268      0.00033655834
    450000   450            1279.3025      0.89722576     5.3994915e+08 -9548.2226      578.60453     -10126.827      0.0003294107 
    451000   451            1240.0276      0.86557231     5.4025484e+08 -9564.3501      560.84121     -10125.191      0.00032922431
    452000   452            1232.6937      1.2214956      5.2032112e+08 -9567.4407      557.52424     -10124.965      0.00034183704
    453000   453            1247.7091      0.88471956     5.0943034e+08 -9540.4172      564.31541     -10104.733      0.00034914495
    454000   454            1215.084       1.1757299      5.1030542e+08 -9587.995       549.55969     -10137.555      0.00034854623
    455000   455            1208.5789      0.7876998      5.1223543e+08 -9592.5476      546.61757     -10139.165      0.00034723297
    456000   456            1201.6795      1.1428985      5.1311352e+08 -9575.981       543.4971      -10119.478      0.00034663875
    457000   457            1221.6677      0.90002133     5.1046277e+08 -9578.7866      552.53739     -10131.324      0.00034843879
    458000   458            1217.4865      1.1150759      5.0382552e+08 -9577.5689      550.6463      -10128.215      0.00035302902
    459000   459            1180.5521      0.86668322     4.949167e+08  -9597.1481      533.94158     -10131.09       0.00035938377
    460000   460            1188.0272      1.0925355      4.9334958e+08 -9590.2212      537.32241     -10127.544      0.00036052535
    461000   461            1186.1179      0.9733409      4.9866719e+08 -9582.5623      536.45887     -10119.021      0.00035668083
    462000   462            1196.2935      1.0565865      5.0714134e+08 -9599.1387      541.06111     -10140.2        0.00035072082
    463000   463            1210.9601      0.80500583     5.1389566e+08 -9581.6296      547.69455     -10129.324      0.00034611117
    464000   464            1166.6499      1.2058577      5.0858472e+08 -9592.01        527.65389     -10119.664      0.00034972547
    465000   465            1165.5125      0.98669195     4.8638354e+08 -9600.2528      527.13946     -10127.392      0.00036568884
    466000   466            1179.4754      1.1294096      4.7819367e+08 -9602.6004      533.4546      -10136.055      0.00037195187
    467000   467            1186.8435      1.0702629      4.8037439e+08 -9588.7756      536.78704     -10125.563      0.00037026335
    468000   468            1165.5413      0.84877873     4.9064174e+08 -9597.1656      527.15246     -10124.318      0.00036251508
    469000   469            1146.1244      0.87429974     4.9669836e+08 -9618.0894      518.37056     -10136.46       0.00035809466
    470000   470            1159.3085      1.0885415      4.9153015e+08 -9615.6291      524.33351     -10139.963      0.00036185985
    471000   471            1165.4814      1.0543719      4.7701046e+08 -9603.0249      527.12537     -10130.15       0.00037287449
    472000   472            1146.1876      1.1060967      4.7025398e+08 -9615.202       518.39917     -10133.601      0.00037823184
    473000   473            1135.8322      0.95547118     4.7043648e+08 -9622.8776      513.71559     -10136.593      0.00037808511
    474000   474            1120.0047      1.1257783      4.7236014e+08 -9610.6851      506.55714     -10117.242      0.00037654538
    475000   475            1103.9814      1.1107142      4.7529041e+08 -9625.1066      499.3101      -10124.417      0.0003742239 
    476000   476            1135.949       0.91874        4.7543385e+08 -9615.0515      513.76842     -10128.82       0.00037411099
    477000   477            1090.1667      0.90866832     4.6808364e+08 -9644.5595      493.06195     -10137.621      0.00037998557
    478000   478            1096.999       0.94338338     4.5301629e+08 -9641.3965      496.1521      -10137.549      0.00039262391
    479000   479            1091.1038      1.1034874      4.48408e+08   -9631.6477      493.48578     -10125.133      0.00039665892
    480000   480            1131.8993      1.1077818      4.5191119e+08 -9620.6579      511.93681     -10132.595      0.00039358403
    481000   481            1105.4335      1.031189       4.5741103e+08 -9643.5775      499.96685     -10143.544      0.00038885164
    482000   482            1081.1917      1.0059933      4.5907657e+08 -9656.0487      489.00272     -10145.051      0.00038744088
    483000   483            1073.9801      0.8980625      4.5507994e+08 -9635.9784      485.74107     -10121.719      0.00039084348
    484000   484            1104.5049      0.83712163     4.4758122e+08 -9631.7261      499.54685     -10131.273      0.00039739163
    485000   485            1066.897       1.0818723      4.4178289e+08 -9666.165       482.53749     -10148.703      0.00040260733
    486000   486            1066.5996      0.95127416     4.4213807e+08 -9646.2193      482.40301     -10128.622      0.00040228391
    487000   487            1077.4668      1.0181709      4.5266079e+08 -9640.7391      487.31803     -10128.057      0.00039293227
    488000   488            1042.8941      1.2110174      4.6410875e+08 -9652.361       471.68146     -10124.042      0.00038323998
    489000   489            1061.6463      1.0655766      4.5881425e+08 -9662.3898      480.1627      -10142.553      0.00038766239
    490000   490            1057.2991      1.1388076      4.4310876e+08 -9648.0508      478.19656     -10126.247      0.00040140265
    491000   491            1084.9262      1.0940525      4.3685337e+08 -9639.7175      490.69178     -10130.409      0.00040715041
    492000   492            1037.1963      1.0654752      4.358764e+08  -9668.8386      469.10444     -10137.943      0.000408063  
    493000   493            1042.7046      1.093132       4.3407202e+08 -9663.4078      471.59575     -10135.004      0.00040975926
    494000   494            996.6179       1.0093248      4.3381435e+08 -9683.6598      450.75159     -10134.411      0.00041000264
    495000   495            1042.8992      0.99144349     4.3205038e+08 -9672.6593      471.68376     -10144.343      0.00041167659
    496000   496            1016.2596      1.0049922      4.2493021e+08 -9674.4171      459.63518     -10134.052      0.00041857469
    497000   497            1015.6841      0.8708334      4.1577243e+08 -9685.338       459.37488     -10144.713      0.00042779419
    498000   498            1029.2072      1.3177977      4.1232785e+08 -9663.5829      465.49112     -10129.074      0.00043136797
    499000   499            1014.1629      0.81105671     4.2015861e+08 -9671.3131      458.68687     -10130          0.0004233283 
    500000   500            1002.5221      1.2447263      4.3193421e+08 -9678.6824      453.42197     -10132.104      0.00041178732
    501000   501            988.26669      0.94301687     4.3387003e+08 -9680.0159      446.97449     -10126.99       0.00040995003
    502000   502            985.59196      1.0855521      4.2838317e+08 -9698.6927      445.76476     -10144.457      0.00041520079
    503000   503            987.61029      1.0503885      4.2112906e+08 -9690.1553      446.67761     -10136.833      0.00042235278
    504000   504            1007.5739      1.0065894      4.1301344e+08 -9673.879       455.70677     -10129.586      0.00043065192
    505000   505            977.90388      1.078338       4.074158e+08  -9702.5686      442.28759     -10144.856      0.00043656881
    506000   506            960.03184      0.8863557      4.0579162e+08 -9718.3947      434.2044      -10152.599      0.00043831618
    507000   507            952.58874      1.0457554      4.065991e+08  -9703.905       430.83802     -10134.743      0.00043744571
    508000   508            951.14779      0.82575722     4.0759818e+08 -9703.0616      430.18631     -10133.248      0.00043637346
    509000   509            969.22499      1.1644772      4.0740645e+08 -9704.5975      438.36229     -10142.96       0.00043657883
    510000   510            957.4729       1.1294483      3.9933631e+08 -9701.7354      433.04704     -10134.782      0.0004454016 
    511000   511            947.28978      0.83356686     3.8965884e+08 -9715.5209      428.4414      -10143.962      0.00045646347
    512000   512            945.48641      1.1410565      3.8687213e+08 -9707.2037      427.62577     -10134.829      0.00045975147
    513000   513            911.10317      0.87282459     3.9004705e+08 -9721.3918      412.07488     -10133.467      0.00045600917
    514000   514            902.65464      1.0220092      3.9580433e+08 -9729.1665      408.25377     -10137.42       0.00044937616
    515000   515            927.03176      0.89960358     4.0041202e+08 -9728.2145      419.27908     -10147.494      0.00044420502
    516000   516            927.23842      1.0855873      3.9791818e+08 -9720.6337      419.37255     -10140.006      0.00044698895
    517000   517            902.64855      1.0447081      3.8265933e+08 -9719.5251      408.25101     -10127.776      0.00046481299
    518000   518            908.85018      0.97259559     3.7353323e+08 -9731.2953      411.05589     -10142.351      0.00047616922
    519000   519            910.73575      0.75004222     3.7397635e+08 -9727.9705      411.9087      -10139.879      0.00047560502
    520000   520            909.26568      1.0944536      3.7853089e+08 -9733.0594      411.24381     -10144.303      0.00046988247
    521000   521            878.19366      0.88915164     3.8458098e+08 -9742.4096      397.19052     -10139.6        0.00046249045
    522000   522            871.32435      0.95918034     3.853024e+08  -9747.4229      394.08366     -10141.507      0.0004616245 
    523000   523            898.39754      1.0230578      3.7900331e+08 -9740.7802      406.32836     -10147.109      0.00046929677
    524000   524            883.77849      1.0384769      3.6902226e+08 -9737.72        399.71644     -10137.436      0.00048198998
    525000   525            871.89508      0.89692909     3.6434875e+08 -9762.3073      394.3418      -10156.649      0.00048817247
    526000   526            864.94502      1.0373958      3.6491629e+08 -9752.5512      391.19841     -10143.75       0.00048741324
    527000   527            861.4311       1.0200982      3.6605609e+08 -9750.5909      389.60913     -10140.2        0.00048589556
    528000   528            847.89422      0.9901812      3.667466e+08  -9779.7483      383.48666     -10163.235      0.00048498072
    529000   529            843.41729      0.92785784     3.634403e+08  -9745.8658      381.46182     -10127.328      0.0004893927 
    530000   530            850.57295      0.96308848     3.5775527e+08 -9743.7998      384.6982      -10128.498      0.00049716955
    531000   531            850.08055      1.0988333      3.5204562e+08 -9758.6373      384.47549     -10143.113      0.0005052329 
    532000   532            836.54501      0.83196853     3.4994103e+08 -9761.2745      378.35362     -10139.628      0.00050827144
    533000   533            829.79067      0.85298691     3.5260836e+08 -9767.6066      375.29876     -10142.905      0.00050442658
    534000   534            793.09838      0.68827508     3.5714149e+08 -9783.3533      358.70352     -10142.057      0.00049802399
    535000   535            817.00845      1.0110432      3.5734368e+08 -9781.7583      369.5176      -10151.276      0.00049774221
    536000   536            817.38933      0.80361763     3.5047579e+08 -9739.6547      369.68987     -10109.345      0.00050749591
    537000   537            835.0573       0.97630058     3.422822e+08  -9764.7906      377.68076     -10142.471      0.0005196444 
    538000   538            815.19096      1.0321088      3.3748637e+08 -9771.8633      368.69558     -10140.559      0.00052702878
    539000   539            802.24888      0.98254754     3.3632367e+08 -9777.4658      362.84212     -10140.308      0.00052885076
    540000   540            805.43428      1.1262238      3.3719391e+08 -9774.6267      364.28282     -10138.909      0.00052748589
    541000   541            800.98961      1.1911097      3.3847312e+08 -9775.2121      362.27258     -10137.485      0.00052549233
    542000   542            789.38674      0.99003395     3.3793302e+08 -9792.7723      357.02482     -10149.797      0.00052633219
    543000   543            798.03454      1.1691797      3.3475181e+08 -9787.2976      360.93606     -10148.234      0.00053133403
    544000   544            794.883        1.1401101      3.2514869e+08 -9773.6712      359.51068     -10133.182      0.00054702675
    545000   545            787.5427       1.0838563      3.1611318e+08 -9799.7824      356.19079     -10155.973      0.00056266249
    546000   546            751.85003      1.1819761      3.1522513e+08 -9791.0985      340.04767     -10131.146      0.00056424762
    547000   547            762.57913      0.84138434     3.1950747e+08 -9799.9096      344.90024     -10144.81       0.00055668505
    548000   548            775.98991      1.1596743      3.2508986e+08 -9787.0928      350.96568     -10138.058      0.00054712574
    549000   549            748.24255      0.80430837     3.2872748e+08 -9797.8537      338.41607     -10136.27       0.00054107138
    550000   550            749.95876      1.0097506      3.2677865e+08 -9802.0026      339.19228     -10141.195      0.0005442982 
    551000   551            757.68747      1.2547186      3.195704e+08  -9814.8463      342.68784     -10157.534      0.00055657541
    552000   552            741.08413      0.92353078     3.1255758e+08 -9825.7802      335.17845     -10160.959      0.00056906324
    553000   553            720.32218      1.1236403      3.1043764e+08 -9816.7034      325.78821     -10142.492      0.00057294929
    554000   554            727.84956      0.94860187     3.0994217e+08 -9837.6428      329.19271     -10166.836      0.00057386521
    555000   555            728.09022      1.2461476      3.0819728e+08 -9820.7095      329.30155     -10150.011      0.00057711421
    556000   556            714.88977      0.90533836     3.0513708e+08 -9813.8069      323.33124     -10137.138      0.00058290205
    557000   557            682.46059      0.75025887     3.0255142e+08 -9847.6833      308.66413     -10156.347      0.00058788364
    558000   558            699.49883      1.1099758      2.9855432e+08 -9840.8565      316.3702      -10157.227      0.00059575433
    559000   559            708.99036      1.0578482      2.9494623e+08 -9832.2704      320.66305     -10152.933      0.00060304221
    560000   560            712.75205      0.82069201     2.9085352e+08 -9820.2142      322.36439     -10142.579      0.00061152786
    561000   561            692.01981      1.0244177      2.8658466e+08 -9848.03        312.98758     -10161.018      0.00062063695
    562000   562            682.65362      0.62490868     2.847354e+08  -9840.2748      308.75143     -10149.026      0.00062466777
    563000   563            659.63958      0.94229591     2.8710633e+08 -9865.083       298.34261     -10163.426      0.00061950926
    564000   564            686.40956      1.102759       2.919379e+08  -9823.9869      310.45017     -10134.437      0.00060925639
    565000   565            690.49937      0.81409102     2.9577148e+08 -9851.174       312.29992     -10163.474      0.00060135963
    566000   566            664.95888      1.3605355      2.9312338e+08 -9841.5747      300.74843     -10142.323      0.00060679237
    567000   567            654.60819      0.98004593     2.8576126e+08 -9856.0364      296.06701     -10152.103      0.00062242528
    568000   568            670.60108      1.1130466      2.7968174e+08 -9843.1398      303.30029     -10146.44       0.0006359551 
    569000   569            663.09575      1.1129045      2.7761207e+08 -9857.5928      299.90577     -10157.499      0.00064069632
    570000   570            655.36223      0.89341648     2.7666412e+08 -9849.7643      296.40805     -10146.172      0.00064289156
    571000   571            636.07024      0.82075596     2.7572855e+08 -9858.3459      287.68264     -10146.029      0.00064507294
    572000   572            643.8676       0.89848335     2.735071e+08  -9850.457       291.20924     -10141.666      0.00065031229
    573000   573            641.97361      1.0028857      2.7132185e+08 -9849.5692      290.35262     -10139.922      0.00065554997
    574000   574            614.3593       0.86686448     2.6803569e+08 -9872.521       277.86319     -10150.384      0.00066358711
[...]
    582000   582            584.11504      0.87766286     2.5463952e+08 -9888.8435      264.18428     -10153.028      0.00069849736
    583000   583            578.40332      1.0095         2.5748223e+08 -9892.0644      261.60098     -10153.665      0.00069078564
    584000   584            579.55324      1.369636       2.5632839e+08 -9894.1208      262.12106     -10156.242      0.00069389517
    585000   585            581.41864      0.95029413     2.5102485e+08 -9883.8018      262.96475     -10146.767      0.00070855546
    586000   586            580.02196      1.5108898      2.4562366e+08 -9888.945       262.33306     -10151.278      0.00072413638
    587000   587            550.59253      0.86550614     2.4227513e+08 -9917.3142      249.02267     -10166.337      0.00073414482
    588000   588            561.42443      1.465092       2.3982506e+08 -9895.5616      253.92174     -10149.483      0.00074164488
    589000   589            565.15356      1.1357657      2.3821664e+08 -9901.4824      255.60836     -10157.091      0.00074665242
    590000   590            534.67591      0.90678522     2.3681712e+08 -9915.8647      241.82389     -10157.689      0.0007510649 
    591000   591            550.84482      1.3026956      2.3450891e+08 -9896.9188      249.13678     -10146.056      0.00075845746
    592000   592            544.59215      1.0521629      2.3135174e+08 -9924.4248      246.30882     -10170.734      0.00076880784
    593000   593            534.77895      1.3980053      2.2760022e+08 -9913.5801      241.87049     -10155.451      0.00078148005
    594000   594            515.19185      1.019868       2.2470399e+08 -9921.6537      233.01161     -10154.665      0.00079155262
    595000   595            523.73361      1.4374685      2.2370498e+08 -9904.1282      236.87489     -10141.003      0.0007950875 
    596000   596            509.90695      0.92507066     2.2350045e+08 -9933.2741      230.62135     -10163.895      0.00079581508
    597000   597            505.28156      0.97724485     2.2357335e+08 -9929.2742      228.52937     -10157.804      0.0007955556 
    598000   598            505.76613      1.0136385      2.2211455e+08 -9926.8052      228.74853     -10155.554      0.00080078063
    599000   599            495.47149      0.9614126      2.1936838e+08 -9929.2542      224.09247     -10153.347      0.00081080523
    600000   600            503.60398      1.1107817      2.156161e+08  -9916.9589      227.77064     -10144.729      0.00082491535
    601000   601            489.3576       1.0563052      2.1197517e+08 -9939.8926      221.32727     -10161.22       0.00083908425
    602000   602            493.78827      0.77616037     2.0929964e+08 -9944.2603      223.33117     -10167.592      0.00084981047
    603000   603            490.20917      1.211858       2.0778629e+08 -9945.0103      221.71242     -10166.723      0.00085599983
    604000   604            471.33689      0.94151434     2.0676569e+08 -9964.4165      213.17684     -10177.593      0.00086022505
    605000   605            466.45805      0.91394018     2.0533512e+08 -9926.3919      210.97023     -10137.362      0.00086621825
    606000   606            472.54026      1.1248609      2.0333392e+08 -9931.2422      213.7211      -10144.963      0.00087474353
    607000   607            473.94804      0.88210107     2.0078976e+08 -9968.3367      214.35781     -10182.694      0.00088582719
    608000   608            458.23279      0.71971354     1.9824234e+08 -9970.1186      207.2501      -10177.369      0.00089721011
    609000   609            452.67531      1.0856701      1.9611254e+08 -9936.0342      204.73655     -10140.771      0.00090695389
    610000   610            448.79871      0.97289571     1.9446949e+08 -9953.3898      202.98324     -10156.373      0.00091461662
    611000   611            440.82859      0.85440816     1.9283555e+08 -9956.105       199.3785      -10155.483      0.00092236637
    612000   612            440.2029       1.1813975      1.9186219e+08 -9950.8845      199.09552     -10149.98       0.00092704578
    613000   613            430.95804      1.1192808      1.902674e+08  -9946.9231      194.91424     -10141.837      0.00093481611
    614000   614            421.43771      1.0605644      1.8796154e+08 -9960.1259      190.60838     -10150.734      0.00094628419
    615000   615            424.24134      1.0863937      1.849616e+08  -9964.062       191.8764      -10155.938      0.00096163219
    616000   616            423.56935      0.96612723     1.8178366e+08 -9951.8839      191.57247     -10143.456      0.00097844344
    617000   617            416.77818      0.93367618     1.793021e+08  -9973.5721      188.50095     -10162.073      0.00099198521
    618000   618            405.57797      1.173641       1.7762237e+08 -9969.3509      183.43531     -10152.786      0.0010013662 
    619000   619            396.84533      0.74543044     1.7624705e+08 -9983.4094      179.4857      -10162.895      0.0010091802 
    620000   620            399.94398      0.94929645     1.7429159e+08 -9986.6862      180.88716     -10167.573      0.0010205026 
    621000   621            395.29768      0.5928868      1.7208417e+08 -10003.88       178.78573     -10182.665      0.0010335932 
    622000   622            390.69768      0.93272007     1.6990574e+08 -9988.1107      176.70523     -10164.816      0.0010468453 
    623000   623            388.73644      1.3478691      1.678621e+08  -9990.182       175.8182      -10166          0.0010595902 
    624000   624            381.40518      0.94497354     1.6603725e+08 -9996.2157      172.50241     -10168.718      0.0010712357 
    625000   625            383.46531      1.1054417      1.6432552e+08 -9997.5062      173.43417     -10170.94       0.0010823944 
    626000   626            368.47946      0.76476771     1.626332e+08  -10005.921      166.65635     -10172.578      0.0010936576 
    627000   627            361.62015      1.0560593      1.6019454e+08 -9989.1538      163.55401     -10152.708      0.0011103064 
    628000   628            367.59406      0.9912438      1.5745721e+08 -9981.038       166.2559      -10147.294      0.0011296087 
    629000   629            352.99487      1.0013296      1.5514676e+08 -9973.1258      159.65296     -10132.779      0.0011464308 
    630000   630            360.71953      1.0089995      1.5300425e+08 -10009.453      163.14668     -10172.599      0.0011624843 
    631000   631            341.1983       1.3590196      1.5113915e+08 -10019.664      154.31759     -10173.981      0.0011768296 
    632000   632            337.9442       1.0971749      1.4919976e+08 -9982.6543      152.84582     -10135.5        0.0011921268 
    633000   633            330.47604      1.1384158      1.4743221e+08 -10015.099      149.46811     -10164.567      0.0012064191 
    634000   634            330.17628      0.96651245     1.4569743e+08 -10026.713      149.33254     -10176.046      0.0012207836 
    635000   635            331.88986      1.1097768      1.4402841e+08 -10012.515      150.10756     -10162.623      0.0012349302 
    636000   636            318.34372      0.96273002     1.4244473e+08 -10012.336      143.98089     -10156.317      0.0012486599 
    637000   637            313.06842      1.0340779      1.4053459e+08 -10030.373      141.59497     -10171.968      0.0012656317 
    638000   638            316.51759      1.135537       1.385731e+08  -10023.891      143.15497     -10167.046      0.0012835466 
    639000   639            307.57945      1.0012765      1.3645981e+08 -10021.503      139.11242     -10160.615      0.0013034243 
    640000   640            305.82868      1.1388366      1.3427366e+08 -10015.289      138.32058     -10153.609      0.0013246457 
Loop time of 39.0837 on 6 procs for 640000 steps with 3500 atoms

Performance: 1414.809 ns/day, 0.017 hours/ns, 16375.107 timesteps/s, 57.313 Matom-step/s
95.7% CPU use with 6 MPI tasks x 1 OpenMP threads

MPI task timing breakdown:
Section |  min time  |  avg time  |  max time  |%varavg| %total
---------------------------------------------------------------
Pair    | 3.7429     | 3.8331     | 3.9585     |   4.0 |  9.81
Neigh   | 12.973     | 13.087     | 13.15      |   1.7 | 33.49
Comm    | 8.9015     | 9.1726     | 9.4657     |   5.8 | 23.47
Output  | 0.10992    | 0.11955    | 0.13384    |   2.3 |  0.31
Modify  | 10.618     | 10.729     | 10.898     |   2.9 | 27.45
Other   |            | 2.142      |            |       |  5.48

Nlocal:        583.333 ave         599 max         564 min
Histogram: 1 1 0 0 1 0 0 1 0 2
Nghost:        208.333 ave         221 max         187 min
Histogram: 1 0 0 0 1 0 0 2 1 1
Neighs:        149.333 ave         164 max         133 min
Histogram: 1 0 0 1 0 2 1 0 0 1

Total # of neighbors = 896
Ave neighs/atom = 0.256
Neighbor list builds = 41880
Dangerous builds = 0

# STAGE 2: Equilibrate at 300K for 50 ps
unfix 1
fix 1 all npt temp 300 300 $(100.0*dt) iso 1.0 1.0 $(1000.0*dt)
fix 1 all npt temp 300 300 0.10000000000000000555 iso 1.0 1.0 $(1000.0*dt)
fix 1 all npt temp 300 300 0.10000000000000000555 iso 1.0 1.0 1

print "Equilibrating Li2Mn3SbO8 quenched structure at 300K"
Equilibrating Li2Mn3SbO8 quenched structure at 300K
run 50000
Generated 0 of 6 mixed pair_coeff terms from geometric mixing rule
Per MPI rank memory allocation (min/avg/max) = 9.249 | 9.249 | 9.249 Mbytes
   Step          Time           Temp          Press          Volume         TotEng         KinEng         PotEng        Density    
    640000   640            305.82868      1.1388366      1.3427366e+08 -10015.289      138.32058     -10153.609      0.0013246457 
    641000   641            293.46571      1.2790843      1.2993407e+08 -10038.516      132.72904     -10171.246      0.0013688867 
    642000   642            297.49071      0.68558864     1.2909547e+08 -10021.939      134.54947     -10156.489      0.001377779  
    643000   643            296.50844      0.84626816     1.2983275e+08 -10001.928      134.10521     -10136.033      0.001369955  
    644000   644            300.4845       0.6366671      1.3092981e+08 -10030.609      135.90351     -10166.512      0.0013584762 
    645000   645            308.19004      1.0352774      1.302295e+08  -10026.68       139.38857     -10166.068      0.0013657814 
    646000   646            297.63866      0.80901996     1.2568116e+08 -10022.802      134.61639     -10157.418      0.0014152083 
    647000   647            299.86984      0.66110395     1.2957016e+08 -10005.778      135.62551     -10141.403      0.0013727314 
    648000   648            297.8106       1.0961044      1.3258891e+08 -10034.526      134.69415     -10169.22       0.0013414774 
    649000   649            306.61967      1.4099804      1.3028769e+08 -10006.117      138.67833     -10144.795      0.0013651714 
    650000   650            292.32652      1.103765       1.3081845e+08 -10036.792      132.2138      -10169.006      0.0013596326 
    651000   651            296.59254      1.1807413      1.291244e+08  -10043.429      134.14324     -10177.572      0.0013774703 
    652000   652            300.55329      0.96649846     1.2908413e+08 -10027.542      135.93462     -10163.476      0.0013779    
    653000   653            305.24868      0.76030918     1.3121297e+08 -10045.266      138.05825     -10183.324      0.0013555445 
    654000   654            301.41553      1.1529882      1.2943367e+08 -10026.037      136.32459     -10162.361      0.001374179  
    655000   655            292.99015      1.2809234      1.2987988e+08 -10031.301      132.51395     -10163.815      0.0013694579 
    656000   656            296.55883      0.82563662     1.3031725e+08 -10032.156      134.128       -10166.284      0.0013648617 
    657000   657            289.32371      0.58648041     1.3158617e+08 -10029.055      130.85569     -10159.911      0.0013517    
    658000   658            297.89634      0.35310127     1.2698422e+08 -10040.668      134.73293     -10175.401      0.0014006861 
    659000   659            299.37233      0.8321377      1.2893333e+08 -10028.437      135.40049     -10163.838      0.0013795116 
    660000   660            300.02501      0.90474632     1.3226406e+08 -10054.667      135.69568     -10190.363      0.0013447722 
    661000   661            304.69695      0.68491225     1.274088e+08  -10015.443      137.80872     -10153.252      0.0013960184 
    662000   662            302.09515      0.89834611     1.2704874e+08 -10030.904      136.63197     -10167.536      0.0013999748 
    663000   663            296.92366      0.84162277     1.3095941e+08 -10047.676      134.293       -10181.969      0.0013581691 
    664000   664            304.17285      1.1831253      1.2950032e+08 -10024.212      137.57168     -10161.783      0.0013734717 
    665000   665            300.06519      1.2234264      1.2837998e+08 -10022.961      135.71386     -10158.675      0.0013854577 
    666000   666            295.83833      0.73424209     1.2886606e+08 -10039.417      133.80213     -10173.219      0.0013802318 
    667000   667            298.32221      1.4423168      1.3211996e+08 -10009.259      134.92554     -10144.185      0.0013462389 
    668000   668            295.00104      1.5510628      1.273249e+08  -10042.59       133.42344     -10176.013      0.0013969384 
    669000   669            292.56246      1.0110203      1.2646752e+08 -10050.339      132.32051     -10182.659      0.0014064087 
    670000   670            298.14765      1.0272954      1.3030826e+08 -10021.997      134.84659     -10156.844      0.0013649559 
    671000   671            296.89526      1.0494329      1.2960936e+08 -10023.522      134.28016     -10157.802      0.0013723162 
    672000   672            297.26556      0.73592995     1.2918888e+08 -10072.019      134.44764     -10206.466      0.0013767828 
    673000   673            298.65509      0.35777035     1.301967e+08  -10057.294      135.07609     -10192.37       0.0013661255 
    674000   674            305.61866      0.93030065     1.2880787e+08 -9996.4645      138.22559     -10134.69       0.0013808553 
    675000   675            301.18657      0.74533115     1.3021609e+08 -10011.725      136.22104     -10147.946      0.0013659221 
    676000   676            294.56641      0.72278398     1.2947075e+08 -9998.935       133.22686     -10132.162      0.0013737854 
    677000   677            297.85217      0.53366852     1.3037946e+08 -10035.367      134.71295     -10170.08       0.0013642105 
    678000   678            297.54821      1.0197942      1.2787141e+08 -10011.396      134.57548     -10145.971      0.001390968  
    679000   679            306.48121      1.26296        1.2635792e+08 -10021.049      138.61571     -10159.665      0.0014076286 
    680000   680            302.2575       0.86374275     1.3325879e+08 -10029.588      136.7054      -10166.293      0.001334734  
    681000   681            294.78781      0.83054712     1.3208073e+08 -10024.344      133.327       -10157.671      0.0013466388 
    682000   682            297.66012      1.4158878      1.2866598e+08 -10021.081      134.62609     -10155.707      0.0013823781 
    683000   683            301.45275      1.2010464      1.2729941e+08 -10014.539      136.34143     -10150.88       0.001397218  
    684000   684            301.12242      0.83059183     1.3196438e+08 -10048.028      136.19202     -10184.22       0.0013478261 
    685000   685            308.8798       0.57764694     1.2916892e+08 -10045.699      139.70054     -10185.4        0.0013769955 
    686000   686            304.10624      0.87463656     1.2905934e+08 -10031.438      137.54155     -10168.98       0.0013781647 
    687000   687            292.20312      1.4525891      1.3192516e+08 -10025.99       132.15799     -10158.148      0.0013482268 
    688000   688            296.98976      0.80839044     1.2991859e+08 -10038.621      134.3229      -10172.944      0.0013690499 
    689000   689            295.32133      0.71971502     1.2772193e+08 -10042.519      133.5683      -10176.087      0.0013925959 
    690000   690            302.14043      0.9503613      1.3122795e+08 -10027.356      136.65245     -10164.009      0.0013553898 
Loop time of 1.98176 on 6 procs for 50000 steps with 3500 atoms

Performance: 2179.879 ns/day, 0.011 hours/ns, 25230.079 timesteps/s, 88.305 Matom-step/s
98.6% CPU use with 6 MPI tasks x 1 OpenMP threads

MPI task timing breakdown:
Section |  min time  |  avg time  |  max time  |%varavg| %total
---------------------------------------------------------------
Pair    | 0.30656    | 0.31345    | 0.32224    |   1.1 | 15.82
Neigh   | 0.15767    | 0.16525    | 0.16962    |   1.1 |  8.34
Comm    | 0.56964    | 0.58212    | 0.61197    |   1.9 | 29.37
Output  | 0.0095693  | 0.0099887  | 0.010697   |   0.4 |  0.50
Modify  | 0.74568    | 0.76901    | 0.78016    |   1.4 | 38.80
Other   |            | 0.1419     |            |       |  7.16

Nlocal:        583.333 ave         620 max         543 min
Histogram: 2 0 0 1 0 0 0 1 0 2
Nghost:            215 ave         255 max         186 min
Histogram: 1 1 0 1 1 1 0 0 0 1
Neighs:        147.667 ave         165 max         116 min
Histogram: 1 0 0 0 0 1 1 0 2 1

Total # of neighbors = 886
Ave neighs/atom = 0.25314286
Neighbor list builds = 1426
Dangerous builds = 0

# STAGE 3: Final minimization
minimize 1.0e-4 1.0e-6 1000 10000
Generated 0 of 6 mixed pair_coeff terms from geometric mixing rule
Per MPI rank memory allocation (min/avg/max) = 10.37 | 10.37 | 10.37 Mbytes
   Step          Time           Temp          Press          Volume         TotEng         KinEng         PotEng        Density    
    690000   690            302.14043      0.9503613      1.3122795e+08 -10027.356      136.65245     -10164.009      0.0013553898 
    690004   690.004        302.14043      1.1390517      1.3122795e+08 -10051.967      136.65245     -10188.619      0.0013553898 
Loop time of 0.000987583 on 6 procs for 4 steps with 3500 atoms

97.8% CPU use with 6 MPI tasks x 1 OpenMP threads

Minimization stats:
  Stopping criterion = energy tolerance
  Energy initial, next-to-last, final = 
     -10164.0086336849  -10188.0053893163  -10188.6191932748
  Force two-norm initial, final = 40.299219 17.410375
  Force max component initial, final = 5.8528388 5.3964857
  Final line search alpha, max atom move = 0.027371417 0.14770946
  Iterations, force evaluations = 4 8

MPI task timing breakdown:
Section |  min time  |  avg time  |  max time  |%varavg| %total
---------------------------------------------------------------
Pair    | 4.65e-05   | 5.4243e-05 | 5.7749e-05 |   0.0 |  5.49
Neigh   | 0          | 0          | 0          |   0.0 |  0.00
Comm    | 8.4293e-05 | 0.00011708 | 0.00013392 |   0.0 | 11.86
Output  | 0          | 0          | 0          |   0.0 |  0.00
Modify  | 0          | 0          | 0          |   0.0 |  0.00
Other   |            | 0.0008163  |            |       | 82.65

Nlocal:        583.333 ave         620 max         543 min
Histogram: 2 0 0 1 0 0 0 1 0 2
Nghost:            215 ave         254 max         186 min
Histogram: 1 1 0 1 1 0 1 0 0 1
Neighs:        148.167 ave         165 max         119 min
Histogram: 1 0 0 0 0 1 1 0 2 1

Total # of neighbors = 889
Ave neighs/atom = 0.254
Neighbor list builds = 0
Dangerous builds = 0

# Save quenched structure with descriptive name
write_data Li2Mn3SbO8_quenched_5Kps_crystalline.data
System init for write_data ...
Generated 0 of 6 mixed pair_coeff terms from geometric mixing rule
write_dump all xyz Li2Mn3SbO8_quenched_5Kps_crystalline.xyz modify element Mn Sb O Li
undump 1

print "QUENCH COMPLETE for {formula} at {cooling_rate} K/ps - structure type: {structure_type}"
QUENCH COMPLETE for {formula} at {cooling_rate} K/ps - structure type: {structure_type}
Total wall time: 0:00:41
