Generated by pymatgen.io.lammps.data.LammpsData

3000  atoms

   4  atom types

0.000000 26.839531  xlo xhi
0.000000 30.911487  ylo yhi
0.000000 37.891080  zlo zhi
0.033593 -13.348165 -7.706166  xy xz yz

Masses

1   6.9410
2  51.9961
3  55.8450
4  15.9994

Atoms

1     1  0.5250   1.065773  1.462948  2.742839
2     1  0.5250   0.463614 -0.423682  4.133223
3     1  0.5250  -1.354610  3.604968 11.564078
4     1  0.5250   0.356990  3.849521  1.221520
5     1  0.5250  -1.225617  2.352820  7.344556
6     1  0.5250  -0.041468 -0.252002  1.412644
7     1  0.5250  -0.051968 -0.980785  8.598385
8     1  0.5250  -0.337645  4.001816  5.622800
9     1  0.5250  -0.519429  0.299636  6.300808
10    2  1.5750   1.432098  0.707631 10.447850
11    2  1.5750  -3.190733  0.801575 10.447154
12    2  1.5750   0.494444  1.169523  8.333204
13    3  1.5750   2.299258  2.880833 10.642378
14    3  1.5750   1.520167  4.647528  9.041306
15    3  1.5750   2.182689  3.519907  5.197066
16    4 -1.0500   0.601145  1.872673  4.997400
17    4 -1.0500   1.931043  0.883374  6.582048
18    4 -1.0500   0.921070  4.302986 11.739479
19    4 -1.0500   3.168300  1.552283  1.751502
20    4 -1.0500  -0.993191  1.093827 10.173895
21    4 -1.0500  -0.316482  3.294099  3.281432
22    4 -1.0500  -2.254970  3.028775  9.505778
23    4 -1.0500   0.162455  2.965371  9.715957
24    4 -1.0500   0.979282  3.247485  7.278077
25    4 -1.0500  -2.110970 -1.244461  9.810028
26    4 -1.0500   2.607956 -0.314903  8.594558
27    1  0.5250  19.795631 12.181364  7.106079
28    4 -1.0500  -2.259387  0.520862  8.395053
29    4 -1.0500  22.477223  8.425457  5.726625
30    1  0.5250   1.413218 -1.725753 10.345443
31    2  1.5750   2.822076  1.524202  4.163032
32    3  1.5750   2.253358  3.518659  2.777905
33    4 -1.0500   2.848476  3.356462  0.316704
34    4 -1.0500   2.799392  2.113804  8.281199
35    4 -1.0500  -3.524793  3.152051 11.550988
36    4 -1.0500   1.101548  1.830786  0.400709
37    4 -1.0500   2.940320  5.223218 11.150617
38    2  1.5750   2.692727 -0.605027  4.934541
39    2  1.5750   1.128146  5.251480  4.001150
40    4 -1.0500  -0.350994 -0.632934 11.399613
41    4 -1.0500  -0.738452  4.701104  7.992998
42    4 -1.0500  -0.546122  5.378922 10.105900
43    4 -1.0500   3.138679  4.393084  7.107412
44    4 -1.0500   2.286893  5.426945  1.151142
45    4 -1.0500  -2.725919  5.724922 10.559227
46    2  1.5750   1.081630  5.682328  6.652700
47    4 -1.0500  -1.134832  5.688369  4.084939
48    1  0.5250   0.131602  6.091366  1.972580
49    4 -1.0500   0.358028  2.026523 12.247833
50    3  1.5750   2.724356  1.526581 12.494868
51    2  1.5750  -1.166084  1.016962  3.330196
52    1  0.5250  -2.396698 -0.785685 12.410157
53    4 -1.0500   2.997718  6.196773  8.758031
54    4 -1.0500   2.885593  6.355932  5.284881
55    1  0.5250  -1.832939  1.393789 12.291959
56    4 -1.0500  26.009341  7.561250  0.534082
57    4 -1.0500  -1.309230  6.301676  6.376793
58    4 -1.0500  17.006557 -1.854099  9.740938
59    4 -1.0500   4.905946 -2.167451 12.256911
60    4 -1.0500   3.980388  3.843726  9.365678
61    1  0.5250   7.128614  2.279899  2.388895
62    1  0.5250   3.904187  1.317539 10.153991
63    1  0.5250   8.171097  2.741168 10.360780
64    1  0.5250   6.832699  4.216874  0.927955
65    1  0.5250   5.284484  3.788900  7.184203
66    1  0.5250   9.314310  1.602274  8.540806
67    1  0.5250   4.144773 -0.337625  7.055946
68    1  0.5250   8.845159 -0.462921  7.419196
69    1  0.5250   6.607310 -0.303083  1.570735
70    1  0.5250   4.368415  4.196647  4.926833
71    1  0.5250   3.994752  2.074382  6.176523
72    2  1.5750   9.523532  1.451834  3.274370
73    2  1.5750   5.051540 -0.521688  9.218157
74    2  1.5750   5.321033  1.718563  1.124405
75    2  1.5750   6.160310  3.743517  9.653730
76    2  1.5750   9.526377 -0.261727  4.869385
77    3  1.5750  10.303461  3.749831  3.002718
78    3  1.5750   6.310011  1.657035 10.745567
79    3  1.5750   6.873548 -1.425448  7.910524
80    3  1.5750   7.299407  2.649260  7.767923
81    3  1.5750   8.336934  3.220792  4.225398
82    4 -1.0500   6.370206  4.405247  3.410343
83    4 -1.0500   7.151532  0.823333  3.939099
84    4 -1.0500   6.376442  2.548682  5.500098
85    4 -1.0500   5.068265  0.187038  5.110591
86    4 -1.0500   8.811681  0.460731  1.205757
87    4 -1.0500   5.279233  1.744967  8.337514
88    4 -1.0500   5.049481  2.220611  3.703586
89    4 -1.0500   9.760039  4.561302 10.946951
90    4 -1.0500  10.810800  1.475951  1.098170
91    4 -1.0500   5.229973  5.800393  9.377841
92    4 -1.0500   9.008007  2.911646  1.265583
93    4 -1.0500   6.380628  0.620737  6.919876
94    4 -1.0500   4.684113  0.159259  2.867739
95    4 -1.0500   8.006284 -0.857476 10.684873
96    4 -1.0500   7.307957  0.580124  9.080285
97    4 -1.0500   8.501052  1.462751  5.941293
98    4 -1.0500   8.972590  3.695387  6.408239
99    4 -1.0500   4.659395  3.169023 11.593551
100   3  1.5750  10.925359  2.618914 10.073009
101   4 -1.0500   9.953936 -0.422517  9.560122
102   1  0.5250   9.143166  4.015336  8.689521
103   2  1.5750   7.092418  4.891917  5.664388
104   3  1.5750   4.591363  3.782683  2.055925
105   4 -1.0500   3.507684  5.516344  3.216935
106   4 -1.0500   8.509809  5.012718  2.432585
107   4 -1.0500   7.141436  5.054070  7.992968
108   4 -1.0500   3.479080 -0.523452 11.385922
109   4 -1.0500   4.494095  5.371992  0.383833
110   4 -1.0500   9.320286  5.394437  4.651479
111   4 -1.0500   6.953216  3.349632 12.372303
112   2  1.5750   5.253389  5.310607 11.577005
113   4 -1.0500  10.705243  2.635211  5.179180
114   1  0.5250   7.561249  5.199284 10.848176
115   4 -1.0500  21.052424 10.450313  8.348476
116   1  0.5250  10.680405  0.642169  6.766532
117   2  1.5750   5.922796 -0.416595 11.284544
118   3  1.5750   9.361719  1.086408 11.178962
119   4 -1.0500  11.197646  3.601655  0.344885
120   1  0.5250  10.842803  5.559437  1.626511
121   4 -1.0500  11.202343  4.920895  8.827827
122   4 -1.0500   9.081620  6.060840  6.962410
123   1  0.5250   9.849655 -1.089848 12.065977
124   4 -1.0500  11.073536  4.979856  6.361224
125   1  0.5250   4.800747  6.019952  7.042923
126   4 -1.0500   5.357007  6.252551  4.769544
127   4 -1.0500   7.291861 -2.280507 12.334262
128   1  0.5250   7.528406 -1.093276  5.531911
129   2  1.5750  11.112922  2.883311  7.699086
130   1  0.5250   5.551077  6.331876  2.216938
131   4 -1.0500   9.188033  6.464104  9.206354
132   1  0.5250   7.566166  0.755412 12.559286
133   4 -1.0500  22.293945  6.718979 11.903691
134   4 -1.0500  11.737396  0.557893  4.586759
135   4 -1.0500  12.722705  4.195171  2.017817
136   1  0.5250  11.959351  2.099384  2.968199
137   1  0.5250  16.427458  3.398855  2.812730
138   1  0.5250  13.064770  1.926175 10.818638
139   1  0.5250  17.637884  1.483995  3.637397
140   1  0.5250  13.221022 -1.164409  9.869879
141   1  0.5250  14.550661  4.347634 11.229852
142   1  0.5250  15.312738  4.648178  8.763461
143   1  0.5250  12.947686  1.991817  0.878478
144   1  0.5250  15.242318 -0.746736  8.722072
145   1  0.5250  12.222169  4.127070  4.229129
146   1  0.5250  15.053043  0.268474  6.494378
147   1  0.5250  15.089718  5.156565  6.129523
148   1  0.5250  16.029164  2.589450  5.235611
149   2  1.5750  13.466831  0.181696  2.735373
150   2  1.5750  11.781772  0.842806  8.906333
151   2  1.5750  17.070855  0.541439  9.753738
152   2  1.5750  15.046622  2.986910  0.584177
153   2  1.5750  13.481118 -0.701243  5.233533
154   3  1.5750  14.933409  4.956074  1.725351
155   3  1.5750  17.712142  3.015000  9.411017
156   3  1.5750  14.462711  0.493443  0.400521
157   3  1.5750  17.270952 -0.872830  7.589940
158   3  1.5750  17.690458  5.299907  9.052527
159   3  1.5750  14.750807  2.946385  7.106099
160   4 -1.0500  13.720958  2.025584  4.817839
161   4 -1.0500  18.036900  5.102452  2.333224
162   4 -1.0500  12.835912  1.428374  6.666846
163   4 -1.0500  17.434294  0.372212  5.769491
164   4 -1.0500  14.497345  4.244885  4.100368
165   4 -1.0500  15.419493  0.498052  4.084219
166   4 -1.0500  12.223310  4.280120 10.883036
167   4 -1.0500  14.311377  2.373036  2.754360
168   4 -1.0500  15.408423  2.674794  9.941523
169   4 -1.0500  16.814861  4.289616  0.321614
170   4 -1.0500  13.346596  3.454341  8.898527
171   4 -1.0500  12.822266  3.702147  6.305585
172   4 -1.0500  17.155220  4.619745  4.849429
173   4 -1.0500  16.149641  1.018384  1.883185
174   4 -1.0500  14.077011  1.211871  8.802251
175   4 -1.0500  12.920142 -0.792709  7.534612
176   4 -1.0500  18.356051  1.474695  7.781211
177   4 -1.0500  16.217440  1.551903  7.890352
178   3  1.5750  16.964876  3.851621  7.214681
179   4 -1.0500  18.016443  2.579035  1.329855
180   4 -1.0500  18.306717  2.631783  5.729828
181   3  1.5750  16.689456  2.022745 11.841108
182   4 -1.0500  15.001100 -2.064987 11.225295
183   4 -1.0500  11.292166 -2.141723 10.582386
184   4 -1.0500  14.782926  0.463718 10.972868
185   2  1.5750  16.788257 -0.575844 11.831565
186   4 -1.0500  18.498522  0.268310  1.947411
187   4 -1.0500  16.949781  4.348895 11.145325
188   4 -1.0500  11.722968  0.171981 11.243629
189   3  1.5750  13.067236  5.607234  7.629922
190   4 -1.0500  13.018316 -1.465631 12.279840
191   1  0.5250  18.828821  5.197271  0.153345
192   4 -1.0500  13.235021  6.123225  5.174045
193   2  1.5750  11.372394  2.528827 12.337133
194   4 -1.0500  13.544780  6.035910  9.852552
195   4 -1.0500  18.855859 -0.930262 10.740011
196   4 -1.0500  18.632003  3.587049 12.256844
197   4 -1.0500  15.904164  6.071537  3.544205
198   4 -1.0500  16.610620  6.333965  7.284342
199   4 -1.0500  13.009022  6.165769  0.552008
200   4 -1.0500  13.376334  6.303447 12.201892
201   2  1.5750  18.911151  3.455860  3.648800
202   2  1.5750  18.091759  6.335495 11.351675
203   4 -1.0500  11.167901  5.703550 12.502061
204   1  0.5250  18.717828  5.513201  6.330519
205   1  0.5250  18.755940  1.472725 10.949156
206   2  1.5750  13.369913  6.232447  2.899877
207   4 -1.0500  11.302106  6.134849  3.749469
208   4 -1.0500  15.778183  6.239297 12.400549
209   4 -1.0500  15.755243  6.450993 10.201604
210   4 -1.0500   3.906337 14.211620  4.954430
211   2  1.5750  19.143664 -0.526483  4.058294
212   4 -1.0500  23.832485  4.889939  8.507944
213   4 -1.0500  22.585224 -1.313646 11.009783
214   4 -1.0500  24.876569  2.234866  5.047557
215   4 -1.0500  24.890896 -0.708019  4.723642
216   2  1.5750  24.283124  4.374797  6.200773
217   2  1.5750  23.790399  0.589350  6.351248
218   2  1.5750  25.719713  1.916780  1.045297
219   3  1.5750  23.823061  4.225416  3.903175
220   3  1.5750  20.779123  2.744245 11.301884
221   3  1.5750  21.425831  4.117227  8.545093
222   2  1.5750  20.090948  2.130523  9.197302
223   1  0.5250  21.807432  2.662707  3.216795
224   1  0.5250  23.234827  0.816856  3.744421
225   1  0.5250  22.194304  2.998497  0.870246
226   1  0.5250  19.293220  3.804415  7.692719
227   1  0.5250  22.857068  0.866961  1.376612
228   1  0.5250  21.142346  0.354527 10.200329
229   1  0.5250  21.756473  0.144518  5.452824
230   1  0.5250  20.218013  1.583202  4.425987
231   2  1.5750  22.917140 -1.499967  8.472042
232   3  1.5750  20.253920  4.224638  1.980535
233   3  1.5750  23.241257  2.657968  7.490073
234   4 -1.0500  22.021696  4.785404  6.563674
235   4 -1.0500  22.566684  2.777474  5.327387
236   4 -1.0500  20.219787  3.983672  5.528926
237   4 -1.0500  21.193282 -0.035492  2.883112
238   4 -1.0500  24.022602  2.632175  2.306276
239   4 -1.0500  22.312501  2.401731  9.598952
240   4 -1.0500  20.789628  2.150632  6.856312
241   4 -1.0500  20.220738  1.724817  1.865618
242   4 -1.0500  19.477167 -0.228870  8.724570
243   4 -1.0500  21.960785  0.471927  7.951716
244   4 -1.0500  19.730740  0.179582  6.301124
245   4 -1.0500  19.512622  4.396642 10.216545
246   4 -1.0500  21.480828  4.893966  3.892799
247   4 -1.0500  25.029943  4.690006  1.901406
248   1  0.5250  21.859652  4.733523 10.772096
249   1  0.5250  20.600571 -2.137009 11.903184
250   4 -1.0500  22.593681  5.143272  1.987935
251   2  1.5750   6.856244 13.722366  8.319437
252   4 -1.0500  19.413598  5.857909  3.989993
253   1  0.5250  19.964814  6.033595  8.096325
254   3  1.5750  20.444801  0.298798 12.299387
255   1  0.5250  20.217112  5.448621 12.358630
256   4 -1.0500  22.092790  6.269205  9.285550
257   4 -1.0500  23.875480  6.335706  0.380153
258   4 -1.0500  23.193512  6.178180  4.846633
259   1  0.5250   3.313113 14.996258  0.916471
260   2  1.5750   0.648112 12.692932  7.808992
261   1  0.5250  -2.375626 11.823746 11.246021
262   4 -1.0500   1.825661 13.634732  4.290664
263   2  1.5750   1.207291 10.952178  9.465363
264   1  0.5250  -0.813120  8.023008  2.924096
265   1  0.5250  -0.873105  7.821312 10.809358
266   1  0.5250  -0.693796 10.851627  7.408948
267   1  0.5250   1.396983  8.502319  0.962482
268   1  0.5250   0.803878  6.894654  8.774466
269   4 -1.0500  -1.961657  8.861527  7.127759
270   1  0.5250   0.177286 11.800463  3.462247
271   1  0.5250   0.089183  8.182737  6.884390
272   2  1.5750   1.290999  6.711372 10.955892
273   2  1.5750  -1.640216  7.034884  8.717554
274   3  1.5750  -2.031341  9.894910  9.678055
275   3  1.5750   1.491270 10.033503  7.306743
276   3  1.5750   2.313516  9.019326  5.085055
277   4 -1.0500   0.871803  9.574955  3.205098
278   4 -1.0500   0.584520  7.353746  4.870006
279   4 -1.0500   1.819536 10.919819  1.289035
280   4 -1.0500  -0.004191  9.093106  9.023908
281   4 -1.0500   1.449169 13.028564  1.825265
282   4 -1.0500   3.189870 12.466397  0.336251
283   4 -1.0500  -0.286229 11.171065 11.147976
284   4 -1.0500  -0.216876  9.799151  5.124919
285   4 -1.0500   1.169625 11.667770  5.562811
286   4 -1.0500  -1.124438 11.978210  5.430297
287   1  0.5250  -1.091758 11.978322  9.272481
288   2  1.5750   1.900656  7.239744  3.027768
289   3  1.5750   2.588374 11.453915  3.488660
290   3  1.5750   1.055918  9.118047 11.342998
291   4 -1.0500   2.413992  7.650596  7.084120
292   4 -1.0500  -3.136033  7.880043 10.276707
293   4 -1.0500  -3.796575  9.469419 11.848209
294   4 -1.0500   2.555307  8.723461  9.468271
295   4 -1.0500   2.971289 11.944525  8.117781
296   4 -1.0500  -0.364540 14.008619  3.426689
297   4 -1.0500   3.093802  9.258824  2.440015
298   4 -1.0500   1.876803 11.313539 11.805467
299   1  0.5250   0.179390 13.964380  5.965241
300   4 -1.0500  -1.346388  9.579571 12.336663
301   4 -1.0500   2.476785 13.534942  6.539373
302   4 -1.0500  -1.711769 13.258381  7.390317
303   1  0.5250   2.907081 12.948758 10.306998
304   2  1.5750   3.325811 11.195374  5.761134
305   2  1.5750  26.267762  9.996817  1.307894
306   2  1.5750  23.353434 12.943635  9.381773
307   4 -1.0500  23.814421 11.249652  7.900285
308   4 -1.0500  -2.415214  7.527227 12.552029
309   3  1.5750   3.660990 10.841048 10.181128
310   4 -1.0500   3.419548  9.358279 11.783541
311   2  1.5750  10.670121 13.459903  8.166834
312   1  0.5250   5.334307 12.664352 10.363932
313   4 -1.0500   7.447461 12.232895 11.626314
314   1  0.5250   5.441572 14.792220  1.511432
315   4 -1.0500   9.839684 14.132635  1.737294
316   4 -1.0500   8.795371 12.738989  9.416746
317   4 -1.0500   8.934898 10.633540  0.290504
318   1  0.5250   4.716416  7.845781  8.427202
319   2  1.5750   6.883519 10.963330  9.765026
320   4 -1.0500   5.456232 12.554862  0.250511
321   4 -1.0500   9.080422 11.904028  5.112889
322   1  0.5250  21.205615  7.826269  7.626087
323   1  0.5250   5.464648  8.963154  2.237092
324   1  0.5250   6.599527  7.311860 11.049350
325   1  0.5250   8.996438  7.187611 11.294105
326   1  0.5250   6.821090 10.957203  3.768298
327   1  0.5250   9.191761 10.929404 10.721345
328   1  0.5250   3.696152  9.650693  7.588083
329   1  0.5250   9.079037 10.517942  8.160653
330   1  0.5250   7.623246  6.681460  1.152139
331   1  0.5250   6.879252 10.938276  1.419785
332   1  0.5250   4.956712 12.744542  6.610989
333   1  0.5250   8.735468 12.907500  7.061498
334   1  0.5250   4.571418  8.266280  6.022319
335   1  0.5250   4.167196  7.743052  3.693737
336   2  1.5750   9.464694  7.368382  2.840765
337   4 -1.0500   6.273267 12.939668  2.783156
338   2  1.5750   3.886022  9.618952  0.348196
339   2  1.5750   8.997153  8.310491  7.604016
340   2  1.5750   8.749354  9.719582  3.933163
341   3  1.5750   7.664230  8.793231  2.163924
342   4 -1.0500   6.846304 12.737386  5.372177
343   3  1.5750   6.510876  9.345936  7.946389
344   3  1.5750   6.775831  7.222108  6.476077
345   4 -1.0500   6.427215  8.654055  4.464981
346   4 -1.0500   8.634463  7.699012  5.254137
347   4 -1.0500   4.543306 10.000316  4.087878
348   4 -1.0500  10.173974  9.523444  5.957454
349   4 -1.0500   7.357270  6.664642  3.565057
350   4 -1.0500   7.095727  7.189251  8.734343
351   4 -1.0500   4.601766 11.246934  1.836869
352   4 -1.0500   8.092118  8.959655  9.870293
353   4 -1.0500   8.731603 11.832070  2.435654
354   4 -1.0500   5.152533 11.339586  8.435257
355   4 -1.0500   3.416243  7.325302  1.215082
356   4 -1.0500   9.899571  7.448227  0.498498
357   4 -1.0500   7.045155 11.613684  7.459771
358   2  1.5750   3.764126 13.429489  2.561339
359   4 -1.0500   5.573250 10.439640  6.097072
360   4 -1.0500   7.769939  9.950631  5.985889
361   2  1.5750   8.166889 13.644671  3.742880
362   4 -1.0500  10.894488 11.071666  3.859951
363   1  0.5250   9.955295  9.487846  1.907641
364   4 -1.0500   3.942938  7.242008 10.905348
365   1  0.5250  10.911139  7.222351  5.672151
366   4 -1.0500  10.396624  8.877765  9.770245
367   4 -1.0500   7.675830 13.338132  0.883415
368   1  0.5250   4.792452 12.178954  4.228454
369   4 -1.0500  10.529409 13.345319  3.828905
370   3  1.5750   5.317081  9.122631 10.121414
371   4 -1.0500   7.000904  9.690946 11.749967
372   4 -1.0500  10.904788 11.848211  1.409239
373   2  1.5750   5.312407 10.836277 12.021798
374   2  1.5750   9.389347  9.188747 12.131775
375   4 -1.0500  10.698066 11.578145  6.815208
376   1  0.5250   3.867316 12.546487 12.480437
377   4 -1.0500  11.020747 11.345867  9.199303
378   2  1.5750  11.108791  7.080895  7.901930
379   4 -1.0500  11.020324 12.953042 10.682704
380   4 -1.0500  23.902580 11.103590  1.490998
381   4 -1.0500  21.170153 12.281700  4.865807
382   4 -1.0500  13.609517 14.529463  2.261031
383   4 -1.0500  18.267388 14.652399  2.378626
384   2  1.5750  15.553038 12.379147 11.839225
385   4 -1.0500  16.938566 14.072775  4.620186
386   4 -1.0500  13.162836 12.899116  9.478017
387   4 -1.0500  17.352101 12.850315  7.143342
388   1  0.5250  13.230373 11.897182 11.530780
389   1  0.5250  15.128494 13.035444  8.147862
390   4 -1.0500  11.090687  8.745322  3.909528
391   1  0.5250  11.301462  6.529281 10.355338
392   3  1.5750  17.234231 14.081257  0.358693
393   4 -1.0500  13.129608 11.487337  0.512199
394   4 -1.0500  17.489283 10.772012 11.571909
395   2  1.5750  14.604704 13.054225  4.068730
396   4 -1.0500  18.457669  7.887381  0.505404
397   4 -1.0500  18.225798  9.953952  3.096015
398   1  0.5250  16.074031 10.968765  3.460921
399   1  0.5250  13.998749  8.140314 11.238341
400   1  0.5250  12.521528 12.606788  2.765496
401   1  0.5250  16.831209  6.536200  1.114473
402   1  0.5250  18.150509 12.364356  3.260913
403   1  0.5250  14.865578 11.249435  9.581445
404   1  0.5250  12.353349 10.048296  2.136743
405   1  0.5250  15.246525  8.891593  9.418844
406   1  0.5250  16.777572  9.260960  1.362968
407   1  0.5250  14.749726  7.178837  7.935485
408   1  0.5250  12.393458 10.063308  5.736426
409   1  0.5250  17.339612  9.588003  5.251487
410   1  0.5250  15.133963  7.451663  5.584703
411   2  1.5750  11.969943  7.804587  1.940200
412   2  1.5750  17.147730 11.625575  1.376678
413   2  1.5750  12.833174  8.040601  9.170685
414   2  1.5750  17.466439  7.557335  9.165740
415   2  1.5750  12.126473 12.440810  5.247210
416   3  1.5750  14.714156 12.094927  1.824697
417   3  1.5750  11.616042  8.326602 11.630191
418   3  1.5750  17.160098  9.915619  9.460044
419   3  1.5750  12.902872 11.583372  7.838876
420   3  1.5750  18.230353 10.445038  7.333629
421   3  1.5750  14.057630  9.524844  7.536164
422   4 -1.0500  13.566506 10.952451  4.007345
423   4 -1.0500  15.975087  8.500308  3.675629
424   4 -1.0500  13.409192  8.366390  4.010193
425   4 -1.0500  14.964981  9.812511  5.453878
426   2  1.5750  17.058787 12.305861  9.450150
427   4 -1.0500  14.559272  9.777016  2.256683
428   4 -1.0500  16.190611 13.626223  2.389309
429   4 -1.0500  12.968663 10.087131 10.025375
430   4 -1.0500  14.422183 13.664408  0.063166
431   4 -1.0500  15.880929 10.888753  7.559489
432   3  1.5750  16.577144  8.213398 11.512957
433   4 -1.0500  11.525642  9.457369  7.819688
434   4 -1.0500  16.494578  8.742386  7.198399
435   4 -1.0500  14.923297  7.491462  1.893782
436   4 -1.0500  13.663123  8.498081  0.416260
437   4 -1.0500  17.335965  7.059362  5.102556
438   4 -1.0500  16.627331 11.819980  5.423747
439   4 -1.0500  12.901105  7.880871  6.420711
440   4 -1.0500  14.294112 12.034885  6.105608
441   2  1.5750  17.995014  7.517343  2.851861
442   1  0.5250  11.977763 13.867813  0.703085
443   2  1.5750  11.357353 10.583920 11.595931
444   4 -1.0500  15.221358 10.056423 11.562964
445   4 -1.0500  18.599135  7.712291  6.996431
446   4 -1.0500  18.766868  8.886540 11.042001
447   4 -1.0500  12.834926 13.745201  7.067351
448   1  0.5250  19.055348 10.350989  0.792372
449   1  0.5250  19.113980 11.223948  9.675655
450   2  1.5750  18.912997 13.136674  5.265971
451   1  0.5250  21.497015  8.600722 10.102010
452   3  1.5750  24.104758 10.272895  5.526279
453   1  0.5250  24.140518  6.742222  2.711830
454   4 -1.0500  20.018311  9.393380  6.520491
455   4 -1.0500  24.854614  7.895084  5.006772
456   4 -1.0500  -0.336965 14.428299  1.071725
457   1  0.5250  20.608952 10.382913 11.227698
458   3  1.5750  22.932675  9.016974  8.347508
459   4 -1.0500  19.488777 12.918425  0.964324
460   1  0.5250  21.907178 10.583630  6.206579
461   4 -1.0500  19.010827 13.469080  8.821253
462   1  0.5250  20.850850  6.548119  5.802027
463   2  1.5750  22.113688 12.173168 11.769413
464   2  1.5750  21.467883  7.285743  3.610849
465   4 -1.0500  19.279267 10.890023  5.033640
466   1  0.5250  22.833803 11.179906  3.737752
467   1  0.5250  23.264654  8.784700  3.405607
468   4 -1.0500  21.816234 14.017800  0.161620
469   2  1.5750  24.106007 13.677768  1.251602
470   2  1.5750  23.490033 12.548520  5.798913
471   3  1.5750  21.048289 11.382393  0.163839
472   3  1.5750  19.359341  8.111643  4.699431
473   4 -1.0500  21.987972 12.661724  7.536469
474   4 -1.0500  20.092659  6.785099 10.232698
475   4 -1.0500  20.491496  8.074775 12.323884
476   4 -1.0500  23.346152  6.780660  7.142243
477   2  1.5750  19.972198  8.720433  2.299703
478   1  0.5250  19.547679 12.165520 11.899657
479   2  1.5750  24.202972  8.769149  1.224556
480   4 -1.0500  21.893144  9.896680  1.739455
481   4 -1.0500  22.120105  7.579376  1.370362
482   4 -1.0500  19.395915  8.891666  8.860393
483   4 -1.0500  20.168760  6.491515  1.704384
484   4 -1.0500  22.035133 12.582248  2.088911
485   1  0.5250  24.518197 12.709363  3.535553
486   4 -1.0500  25.891028 12.241609  1.379678
487   3  1.5750  20.189378 11.324651  2.855591
488   1  0.5250  22.545963 14.011376  4.119626
489   2  1.5750  20.417972 13.822616  3.289738
490   4 -1.0500  22.716440 10.707260 10.012317
491   4 -1.0500  21.058619  9.649356  4.228096
492   3  1.5750  25.087669 10.219320  3.363794
493   4 -1.0500  21.040084 12.612493  9.766396
494   4 -1.0500  -4.255736  1.160739 12.433214
495   4 -1.0500  -0.729260  5.956639 12.330966
496   4 -1.0500   5.638470  7.804019  0.158387
497   2  1.5750   8.993165  4.983273  0.173947
498   4 -1.0500   8.912758 15.390365  0.039998
499   4 -1.0500  15.111227 10.309077  0.061397
500   1  0.5250  -4.661780 -1.624232 18.163406
501   1  0.5250  -2.587651 -3.469706 18.138448
502   1  0.5250  -4.529211 -0.336347 15.926164
503   1  0.5250  -6.825860 -0.745130 21.790810
504   1  0.5250  -2.707822 -1.665834 16.554186
505   1  0.5250  -6.636618 -2.237120 23.383290
506   1  0.5250  -2.309659 -2.491671 13.874752
507   1  0.5250  -4.611229 -3.569264 19.594590
508   1  0.5250  -5.685633  1.205068 21.124168
509   1  0.5250  -6.204162 -1.744609 19.881577
510   2  1.5750  -7.955288 -0.475956 24.302244
511   2  1.5750  -2.700065 -3.000879 22.983070
512   3  1.5750  -1.347740  1.971074 18.000324
513   3  1.5750  -4.905552  1.685601 14.704817
514   3  1.5750  -3.326021  1.454465 21.740601
515   3  1.5750  -2.385130 -1.220617 18.927058
516   4 -1.0500  -3.412858  0.543730 17.798074
517   4 -1.0500  -2.677989 -3.008638 20.497584
518   4 -1.0500  -5.768117  0.488135 18.830802
519   4 -1.0500  -4.933383  2.145308 17.282044
520   4 -1.0500  -2.746528  0.076501 14.524795
521   4 -1.0500  -4.112297 -0.380543 20.214565
522   4 -1.0500  -4.656492 -2.273066 21.701973
523   4 -1.0500  -4.597642 -0.923586 13.433956
524   4 -1.0500  -2.448765 -0.946304 21.617098
525   4 -1.0500  -6.114169  2.697995 19.367288
526   4 -1.0500  -2.963060  1.902034 15.906357
527   4 -1.0500  -6.685622  1.130669 23.357741
528   4 -1.0500  -1.475175  0.917924 23.515842
529   4 -1.0500  -5.126215 -4.276398 22.869607
530   3  1.5750  -4.646788 -0.211288 22.846310
531   2  1.5750  -4.260614 -2.600365 14.895040
532   2  1.5750  -6.561028 -3.755781 21.064087
533   1  0.5250  -3.747224  2.350599 19.527042
534   1  0.5250  -4.884594  2.467931 23.085518
535   1  0.5250  -7.578223 -4.381024 23.113567
536   2  1.5750  -2.062031  0.869007 19.840444
537   2  1.5750  -7.282157  2.793031 21.461535
538   4 -1.0500  -4.504587 -2.384367 24.152252
539   4 -1.0500  -2.750921 -0.800549 23.998136
540   4 -1.0500  -3.709795  1.297840 24.697095
541   4 -1.0500  -2.755675  2.697331 13.815547
542   2  1.5750  -2.681057  3.053286 23.500201
543   4 -1.0500  -3.500620 -4.582486 24.724883
544   4 -1.0500  -1.302304  0.284219 16.391125
545   2  1.5750  -6.892416  3.513039 23.579499
546   4 -1.0500  -8.212158  1.862298 24.897020
547   4 -1.0500  -1.344649  2.543966 21.507655
548   4 -1.0500  -6.047280 -4.256849 25.125111
549   4 -1.0500  -5.400227 -0.382398 25.026140
550   1  0.5250  -2.882211  3.681443 17.414267
551   1  0.5250  -5.076663  3.724742 21.133963
552   4 -1.0500  10.924630 -3.216870 17.333364
553   4 -1.0500  20.340237 -3.563950 18.054375
554   2  1.5750  -1.500305  3.757949 19.502798
555   4 -1.0500  -4.802809  3.713108 25.214712
556   4 -1.0500   4.360723 -4.725409 24.665013
557   2  1.5750   2.449143  2.295216 24.397654
558   2  1.5750  -0.626128 -2.446694 17.750725
559   4 -1.0500  -0.501389 -0.429081 13.856251
560   4 -1.0500  -0.509963  0.405803 21.420356
561   1  0.5250  -0.760158  1.770633 14.494726
562   1  0.5250   1.897379 -1.567961 18.232891
563   1  0.5250   6.401703 -1.176066 17.660633
564   1  0.5250   1.018420 -3.540638 19.216854
565   1  0.5250   3.098075  0.845949 16.410348
566   1  0.5250  -0.483186 -1.632548 22.541887
567   1  0.5250   4.877732 -0.979681 23.666258
568   1  0.5250   1.371655 -3.192450 16.635563
569   1  0.5250  -0.670031 -3.921135 21.723722
570   1  0.5250   5.823682 -3.076438 24.389447
571   1  0.5250   1.233566 -0.728513 20.410478
572   1  0.5250   5.793346 -4.501234 22.478133
573   1  0.5250   6.149705  2.290592 22.395279
574   1  0.5250   4.083885 -2.660763 14.200231
575   1  0.5250  -0.589517 -1.958978 20.087884
576   1  0.5250   6.513270 -2.252663 22.124203
577   2  1.5750   5.557800 -1.495672 19.742451
578   2  1.5750   1.026084 -0.527056 16.431957
579   2  1.5750   5.119376  0.046244 15.824897
580   2  1.5750   1.427752 -2.053707 23.716401
581   2  1.5750  -0.099564 -2.440207 12.658442
582   3  1.5750   4.215053 -0.370374 18.050971
583   3  1.5750   0.611101  1.701859 16.483087
584   3  1.5750   1.232000 -4.398316 23.076012
585   3  1.5750   3.723588  2.014538 14.509441
586   3  1.5750   0.854829  0.263017 23.190464
587   3  1.5750   1.524398  0.714876 14.512295
588   3  1.5750   4.994910 -0.027476 21.519624
589   4 -1.0500   3.336096  0.655247 20.028101
590   4 -1.0500   3.376614 -1.775045 19.970960
591   4 -1.0500  -0.226788 -0.173986 18.503246
592   4 -1.0500   5.495128 -3.690585 19.953549
593   4 -1.0500   3.108388 -1.546404 16.158770
594   4 -1.0500   1.835286  0.996987 18.353775
595   4 -1.0500   6.243040  1.242662 17.501207
596   4 -1.0500   4.055545 -2.862099 18.047813
597   4 -1.0500   3.683795 -0.435240 13.994219
598   4 -1.0500   2.849160 -0.642772 22.250880
599   4 -1.0500  -0.558872 -1.917135 15.562181
600   4 -1.0500   6.651691 -3.537646 17.931822
601   4 -1.0500   5.441339 -2.301074 16.111120
602   4 -1.0500   1.557574 -2.673181 21.424545
603   4 -1.0500   1.517306 -1.951491 14.445524
604   4 -1.0500   4.347412 -2.685249 21.761556
605   4 -1.0500   4.245505  1.337315 23.251383
606   4 -1.0500   0.223570  1.823685 19.807448
607   4 -1.0500   5.875458  0.968047 19.756869
608   4 -1.0500   4.921095  1.119200 12.675944
609   1  0.5250   4.163969  2.517410 21.121944
610   4 -1.0500   4.776119  2.619059 16.310475
611   4 -1.0500   1.964132  1.586624 21.655979
612   4 -1.0500   1.447509  2.967267 14.406995
613   4 -1.0500   6.263914  1.743398 14.515095
614   2  1.5750   4.311790  2.256031 18.578037
615   4 -1.0500  -0.671279 -3.433570 24.142359
616   4 -1.0500   2.748992 -0.070659 24.493922
617   4 -1.0500   2.506245  3.010411 16.964928
618   1  0.5250   0.348464  2.470548 23.076503
619   1  0.5250   3.452567 -2.818742 23.792732
620   4 -1.0500   6.113298 -0.836724 13.945897
621   1  0.5250   4.833946  3.470810 23.870334
622   4 -1.0500   6.286466  1.925131 24.950086
623   1  0.5250   2.265039  3.050943 19.440994
624   4 -1.0500   0.421533  3.524420 18.011354
625   4 -1.0500   6.125167  3.329221 20.308211
626   4 -1.0500   6.669728  0.234016 23.139996
627   4 -1.0500  -0.868138  3.452293 15.977737
628   3  1.5750  -0.522472 -0.844895 24.859424
629   1  0.5250  -1.032141  2.986078 24.984330
630   2  1.5750   5.131077  3.736439 13.798087
631   1  0.5250   2.788692  3.765769 12.892507
632   2  1.5750   2.699527  3.558597 22.515145