Generated by pymatgen.io.lammps.data.LammpsData

3000  atoms

   4  atom types

0.000000 25.838570  xlo xhi
0.000000 29.758665  ylo yhi
0.000000 36.477960  zlo zhi
0.032340 -12.850355 -7.418770  xy xz yz

Masses

1   6.9410
2  51.9961
3  55.8450
4  15.9994

Atoms

1     1  0.5250   1.293885  3.713613  3.639815
2     1  0.5250  -1.276186  2.229859 10.935407
3     1  0.5250  -3.846257  0.746105 18.230999
4     1  0.5250  -6.416328 -0.737649 25.526591
5     1  0.5250  -8.986399 -2.221403 32.822183
6     1  0.5250   1.300353  9.665346  3.639815
7     1  0.5250  -1.269718  8.181592 10.935407
8     1  0.5250  -3.839789  6.697838 18.230999
9     1  0.5250  -6.409860  5.214084 25.526591
10    1  0.5250  -8.979931  3.730330 32.822183
11    1  0.5250   1.306821 15.617079  3.639815
12    1  0.5250  -1.263250 14.133325 10.935407
13    1  0.5250  -3.833321 12.649571 18.230999
14    1  0.5250  -6.403392 11.165817 25.526591
15    1  0.5250  -8.973463  9.682063 32.822183
16    1  0.5250   1.313289 21.568812  3.639815
17    1  0.5250  -1.256782 20.085058 10.935407
18    1  0.5250  -3.826853 18.601304 18.230999
19    1  0.5250  -6.396924 17.117550 25.526591
20    1  0.5250  -8.966995 15.633796 32.822183
21    1  0.5250   1.319757 27.520545  3.639815
22    1  0.5250  -1.250314 26.036791 10.935407
23    1  0.5250  -3.820385 24.553037 18.230999
24    1  0.5250  -6.390456 23.069283 25.526591
25    1  0.5250  -8.960527 21.585529 32.822183
26    1  0.5250   6.461599  3.713613  3.639815
27    1  0.5250   3.891528  2.229859 10.935407
28    1  0.5250   1.321457  0.746105 18.230999
29    1  0.5250  -1.248614 -0.737649 25.526591
30    1  0.5250  -3.818685 -2.221403 32.822183
31    1  0.5250   6.468067  9.665346  3.639815
32    1  0.5250   3.897996  8.181592 10.935407
33    1  0.5250   1.327925  6.697838 18.230999
34    1  0.5250  -1.242146  5.214084 25.526591
35    1  0.5250  -3.812217  3.730330 32.822183
36    1  0.5250   6.474535 15.617079  3.639815
37    1  0.5250   3.904464 14.133325 10.935407
38    1  0.5250   1.334393 12.649571 18.230999
39    1  0.5250  -1.235678 11.165817 25.526591
40    1  0.5250  -3.805749  9.682063 32.822183
41    1  0.5250   6.481003 21.568812  3.639815
42    1  0.5250   3.910932 20.085058 10.935407
43    1  0.5250   1.340861 18.601304 18.230999
44    1  0.5250  -1.229210 17.117550 25.526591
45    1  0.5250  -3.799281 15.633796 32.822183
46    1  0.5250   6.487471 27.520545  3.639815
47    1  0.5250   3.917400 26.036791 10.935407
48    1  0.5250   1.347329 24.553037 18.230999
49    1  0.5250  -1.222742 23.069283 25.526591
50    1  0.5250  -3.792813 21.585529 32.822183
51    1  0.5250  11.629313  3.713613  3.639815
52    1  0.5250   9.059242  2.229859 10.935407
53    1  0.5250   6.489171  0.746105 18.230999
54    1  0.5250   3.919100 -0.737649 25.526591
55    1  0.5250   1.349029 -2.221403 32.822183
56    1  0.5250  11.635781  9.665346  3.639815
57    1  0.5250   9.065710  8.181592 10.935407
58    1  0.5250   6.495639  6.697838 18.230999
59    1  0.5250   3.925568  5.214084 25.526591
60    1  0.5250   1.355497  3.730330 32.822183
61    1  0.5250  11.642249 15.617079  3.639815
62    1  0.5250   9.072178 14.133325 10.935407
63    1  0.5250   6.502107 12.649571 18.230999
64    1  0.5250   3.932036 11.165817 25.526591
65    1  0.5250   1.361965  9.682063 32.822183
66    1  0.5250  11.648717 21.568812  3.639815
67    1  0.5250   9.078646 20.085058 10.935407
68    1  0.5250   6.508575 18.601304 18.230999
69    1  0.5250   3.938504 17.117550 25.526591
70    1  0.5250   1.368433 15.633796 32.822183
71    1  0.5250  11.655185 27.520545  3.639815
72    1  0.5250   9.085114 26.036791 10.935407
73    1  0.5250   6.515043 24.553037 18.230999
74    1  0.5250   3.944972 23.069283 25.526591
75    1  0.5250   1.374901 21.585529 32.822183
76    1  0.5250  16.797027  3.713613  3.639815
77    1  0.5250  14.226956  2.229859 10.935407
78    1  0.5250  11.656885  0.746105 18.230999
79    1  0.5250   9.086814 -0.737649 25.526591
80    1  0.5250   6.516743 -2.221403 32.822183
81    1  0.5250  16.803495  9.665346  3.639815
82    1  0.5250  14.233424  8.181592 10.935407
83    1  0.5250  11.663353  6.697838 18.230999
84    1  0.5250   9.093282  5.214084 25.526591
85    1  0.5250   6.523211  3.730330 32.822183
86    1  0.5250  16.809963 15.617079  3.639815
87    1  0.5250  14.239892 14.133325 10.935407
88    1  0.5250  11.669821 12.649571 18.230999
89    1  0.5250   9.099750 11.165817 25.526591
90    1  0.5250   6.529679  9.682063 32.822183
91    1  0.5250  16.816431 21.568812  3.639815
92    1  0.5250  14.246360 20.085058 10.935407
93    1  0.5250  11.676289 18.601304 18.230999
94    1  0.5250   9.106218 17.117550 25.526591
95    1  0.5250   6.536147 15.633796 32.822183
96    1  0.5250  16.822899 27.520545  3.639815
97    1  0.5250  14.252828 26.036791 10.935407
98    1  0.5250  11.682757 24.553037 18.230999
99    1  0.5250   9.112686 23.069283 25.526591
100   1  0.5250   6.542615 21.585529 32.822183
101   1  0.5250  21.964741  3.713613  3.639815
102   1  0.5250  19.394670  2.229859 10.935407
103   1  0.5250  16.824599  0.746105 18.230999
104   1  0.5250  14.254528 -0.737649 25.526591
105   1  0.5250  11.684457 -2.221403 32.822183
106   1  0.5250  21.971209  9.665346  3.639815
107   1  0.5250  19.401138  8.181592 10.935407
108   1  0.5250  16.831067  6.697838 18.230999
109   1  0.5250  14.260996  5.214084 25.526591
110   1  0.5250  11.690925  3.730330 32.822183
111   1  0.5250  21.977677 15.617079  3.639815
112   1  0.5250  19.407606 14.133325 10.935407
113   1  0.5250  16.837535 12.649571 18.230999
114   1  0.5250  14.267464 11.165817 25.526591
115   1  0.5250  11.697393  9.682063 32.822183
116   1  0.5250  21.984145 21.568812  3.639815
117   1  0.5250  19.414074 20.085058 10.935407
118   1  0.5250  16.844003 18.601304 18.230999
119   1  0.5250  14.273932 17.117550 25.526591
120   1  0.5250  11.703861 15.633796 32.822183
121   1  0.5250  21.990613 27.520545  3.639815
122   1  0.5250  19.420542 26.036791 10.935407
123   1  0.5250  16.850471 24.553037 18.230999
124   1  0.5250  14.280400 23.069283 25.526591
125   1  0.5250  11.710329 21.585529 32.822183
126   1  0.5250   1.310226  0.754366  3.655777
127   1  0.5250  -1.259845 -0.729388 10.951369
128   1  0.5250  -3.829916 -2.213142 18.246961
129   1  0.5250  -6.399987 -3.696896 25.542553
130   1  0.5250  -8.970058 -5.180650 32.838145
131   1  0.5250   1.316694  6.706099  3.655777
132   1  0.5250  -1.253377  5.222345 10.951369
133   1  0.5250  -3.823448  3.738591 18.246961
134   1  0.5250  -6.393519  2.254837 25.542553
135   1  0.5250  -8.963590  0.771083 32.838145
136   1  0.5250   1.323162 12.657832  3.655777
137   1  0.5250  -1.246909 11.174078 10.951369
138   1  0.5250  -3.816980  9.690324 18.246961
139   1  0.5250  -6.387051  8.206570 25.542553
140   1  0.5250  -8.957122  6.722816 32.838145
141   1  0.5250   1.329630 18.609565  3.655777
142   1  0.5250  -1.240441 17.125811 10.951369
143   1  0.5250  -3.810512 15.642057 18.246961
144   1  0.5250  -6.380583 14.158303 25.542553
145   1  0.5250  -8.950654 12.674549 32.838145
146   1  0.5250   1.336098 24.561298  3.655777
147   1  0.5250  -1.233973 23.077544 10.951369
148   1  0.5250  -3.804044 21.593790 18.246961
149   1  0.5250  -6.374115 20.110036 25.542553
150   1  0.5250  -8.944186 18.626282 32.838145
151   1  0.5250   6.477940  0.754366  3.655777
152   1  0.5250   3.907869 -0.729388 10.951369
153   1  0.5250   1.337798 -2.213142 18.246961
154   1  0.5250  -1.232273 -3.696896 25.542553
155   1  0.5250  -3.802344 -5.180650 32.838145
156   1  0.5250   6.484408  6.706099  3.655777
157   1  0.5250   3.914337  5.222345 10.951369
158   1  0.5250   1.344266  3.738591 18.246961
159   1  0.5250  -1.225805  2.254837 25.542553
160   1  0.5250  -3.795876  0.771083 32.838145
161   1  0.5250   6.490876 12.657832  3.655777
162   1  0.5250   3.920805 11.174078 10.951369
163   1  0.5250   1.350734  9.690324 18.246961
164   1  0.5250  -1.219337  8.206570 25.542553
165   1  0.5250  -3.789408  6.722816 32.838145
166   1  0.5250   6.497344 18.609565  3.655777
167   1  0.5250   3.927273 17.125811 10.951369
168   1  0.5250   1.357202 15.642057 18.246961
169   1  0.5250  -1.212869 14.158303 25.542553
170   1  0.5250  -3.782940 12.674549 32.838145
171   1  0.5250   6.503812 24.561298  3.655777
172   1  0.5250   3.933741 23.077544 10.951369
173   1  0.5250   1.363670 21.593790 18.246961
174   1  0.5250  -1.206401 20.110036 25.542553
175   1  0.5250  -3.776472 18.626282 32.838145
176   1  0.5250  11.645654  0.754366  3.655777
177   1  0.5250   9.075583 -0.729388 10.951369
178   1  0.5250   6.505512 -2.213142 18.246961
179   1  0.5250   3.935441 -3.696896 25.542553
180   1  0.5250   1.365370 -5.180650 32.838145
181   1  0.5250  11.652122  6.706099  3.655777
182   1  0.5250   9.082051  5.222345 10.951369
183   1  0.5250   6.511980  3.738591 18.246961
184   1  0.5250   3.941909  2.254837 25.542553
185   1  0.5250   1.371838  0.771083 32.838145
186   1  0.5250  11.658590 12.657832  3.655777
187   1  0.5250   9.088519 11.174078 10.951369
188   1  0.5250   6.518448  9.690324 18.246961
189   1  0.5250   3.948377  8.206570 25.542553
190   1  0.5250   1.378306  6.722816 32.838145
191   1  0.5250  11.665058 18.609565  3.655777
192   1  0.5250   9.094987 17.125811 10.951369
193   1  0.5250   6.524916 15.642057 18.246961
194   1  0.5250   3.954845 14.158303 25.542553
195   1  0.5250   1.384774 12.674549 32.838145
196   1  0.5250  11.671526 24.561298  3.655777
197   1  0.5250   9.101455 23.077544 10.951369
198   1  0.5250   6.531384 21.593790 18.246961
199   1  0.5250   3.961313 20.110036 25.542553
200   1  0.5250   1.391242 18.626282 32.838145
201   1  0.5250  16.813368  0.754366  3.655777
202   1  0.5250  14.243297 -0.729388 10.951369
203   1  0.5250  11.673226 -2.213142 18.246961
204   1  0.5250   9.103155 -3.696896 25.542553
205   1  0.5250   6.533084 -5.180650 32.838145
206   1  0.5250  16.819836  6.706099  3.655777
207   1  0.5250  14.249765  5.222345 10.951369
208   1  0.5250  11.679694  3.738591 18.246961
209   1  0.5250   9.109623  2.254837 25.542553
210   1  0.5250   6.539552  0.771083 32.838145
211   1  0.5250  16.826304 12.657832  3.655777
212   1  0.5250  14.256233 11.174078 10.951369
213   1  0.5250  11.686162  9.690324 18.246961
214   1  0.5250   9.116091  8.206570 25.542553
215   1  0.5250   6.546020  6.722816 32.838145
216   1  0.5250  16.832772 18.609565  3.655777
217   1  0.5250  14.262701 17.125811 10.951369
218   1  0.5250  11.692630 15.642057 18.246961
219   1  0.5250   9.122559 14.158303 25.542553
220   1  0.5250   6.552488 12.674549 32.838145
221   1  0.5250  16.839240 24.561298  3.655777
222   1  0.5250  14.269169 23.077544 10.951369
223   1  0.5250  11.699098 21.593790 18.246961
224   1  0.5250   9.129027 20.110036 25.542553
225   1  0.5250   6.558956 18.626282 32.838145
226   1  0.5250  21.981082  0.754366  3.655777
227   1  0.5250  19.411011 -0.729388 10.951369
228   1  0.5250  16.840940 -2.213142 18.246961
229   1  0.5250  14.270869 -3.696896 25.542553
230   1  0.5250  11.700798 -5.180650 32.838145
231   1  0.5250  21.987550  6.706099  3.655777
232   1  0.5250  19.417479  5.222345 10.951369
233   1  0.5250  16.847408  3.738591 18.246961
234   1  0.5250  14.277337  2.254837 25.542553
235   1  0.5250  11.707266  0.771083 32.838145
236   1  0.5250  21.994018 12.657832  3.655777
237   1  0.5250  19.423947 11.174078 10.951369
238   1  0.5250  16.853876  9.690324 18.246961
239   1  0.5250  14.283805  8.206570 25.542553
240   1  0.5250  11.713734  6.722816 32.838145
241   1  0.5250  22.000486 18.609565  3.655777
242   1  0.5250  19.430415 17.125811 10.951369
243   1  0.5250  16.860344 15.642057 18.246961
244   1  0.5250  14.290273 14.158303 25.542553
245   1  0.5250  11.720202 12.674549 32.838145
246   1  0.5250  22.006954 24.561298  3.655777
247   1  0.5250  19.436883 23.077544 10.951369
248   1  0.5250  16.866812 21.593790 18.246961
249   1  0.5250  14.296741 20.110036 25.542553
250   1  0.5250  11.726670 18.626282 32.838145
251   1  0.5250   2.157676  5.200189  1.211761
252   1  0.5250  -0.412395  3.716435  8.507353
253   1  0.5250  -2.982466  2.232681 15.802945
254   1  0.5250  -5.552537  0.748927 23.098537
255   1  0.5250  -8.122608 -0.734827 30.394129
256   1  0.5250   2.164144 11.151922  1.211761
257   1  0.5250  -0.405927  9.668168  8.507353
258   1  0.5250  -2.975998  8.184414 15.802945
259   1  0.5250  -5.546069  6.700660 23.098537
260   1  0.5250  -8.116140  5.216906 30.394129
261   1  0.5250   2.170612 17.103655  1.211761
262   1  0.5250  -0.399459 15.619901  8.507353
263   1  0.5250  -2.969530 14.136147 15.802945
264   1  0.5250  -5.539601 12.652393 23.098537
265   1  0.5250  -8.109672 11.168639 30.394129
266   1  0.5250   2.177080 23.055388  1.211761
267   1  0.5250  -0.392991 21.571634  8.507353
268   1  0.5250  -2.963062 20.087880 15.802945
269   1  0.5250  -5.533133 18.604126 23.098537
270   1  0.5250  -8.103204 17.120372 30.394129
271   1  0.5250   2.183548 29.007121  1.211761
272   1  0.5250  -0.386523 27.523367  8.507353
273   1  0.5250  -2.956594 26.039613 15.802945
274   1  0.5250  -5.526665 24.555859 23.098537
275   1  0.5250  -8.096736 23.072105 30.394129
276   1  0.5250   7.325390  5.200189  1.211761
277   1  0.5250   4.755319  3.716435  8.507353
278   1  0.5250   2.185248  2.232681 15.802945
279   1  0.5250  -0.384823  0.748927 23.098537
280   1  0.5250  -2.954894 -0.734827 30.394129
281   1  0.5250   7.331858 11.151922  1.211761
282   1  0.5250   4.761787  9.668168  8.507353
283   1  0.5250   2.191716  8.184414 15.802945
284   1  0.5250  -0.378355  6.700660 23.098537
285   1  0.5250  -2.948426  5.216906 30.394129
286   1  0.5250   7.338326 17.103655  1.211761
287   1  0.5250   4.768255 15.619901  8.507353
288   1  0.5250   2.198184 14.136147 15.802945
289   1  0.5250  -0.371887 12.652393 23.098537
290   1  0.5250  -2.941958 11.168639 30.394129
291   1  0.5250   7.344794 23.055388  1.211761
292   1  0.5250   4.774723 21.571634  8.507353
293   1  0.5250   2.204652 20.087880 15.802945
294   1  0.5250  -0.365419 18.604126 23.098537
295   1  0.5250  -2.935490 17.120372 30.394129
296   1  0.5250   7.351262 29.007121  1.211761
297   1  0.5250   4.781191 27.523367  8.507353
298   1  0.5250   2.211120 26.039613 15.802945
299   1  0.5250  -0.358951 24.555859 23.098537
300   1  0.5250  -2.929022 23.072105 30.394129
301   1  0.5250  12.493104  5.200189  1.211761
302   1  0.5250   9.923033  3.716435  8.507353
303   1  0.5250   7.352962  2.232681 15.802945
304   1  0.5250   4.782891  0.748927 23.098537
305   1  0.5250   2.212820 -0.734827 30.394129
306   1  0.5250  12.499572 11.151922  1.211761
307   1  0.5250   9.929501  9.668168  8.507353
308   1  0.5250   7.359430  8.184414 15.802945
309   1  0.5250   4.789359  6.700660 23.098537
310   1  0.5250   2.219288  5.216906 30.394129
311   1  0.5250  12.506040 17.103655  1.211761
312   1  0.5250   9.935969 15.619901  8.507353
313   1  0.5250   7.365898 14.136147 15.802945
314   1  0.5250   4.795827 12.652393 23.098537
315   1  0.5250   2.225756 11.168639 30.394129
316   1  0.5250  12.512508 23.055388  1.211761
317   1  0.5250   9.942437 21.571634  8.507353
318   1  0.5250   7.372366 20.087880 15.802945
319   1  0.5250   4.802295 18.604126 23.098537
320   1  0.5250   2.232224 17.120372 30.394129
321   1  0.5250  12.518976 29.007121  1.211761
322   1  0.5250   9.948905 27.523367  8.507353
323   1  0.5250   7.378834 26.039613 15.802945
324   1  0.5250   4.808763 24.555859 23.098537
325   1  0.5250   2.238692 23.072105 30.394129
326   1  0.5250  17.660818  5.200189  1.211761
327   1  0.5250  15.090747  3.716435  8.507353
328   1  0.5250  12.520676  2.232681 15.802945
329   1  0.5250   9.950605  0.748927 23.098537
330   1  0.5250   7.380534 -0.734827 30.394129
331   1  0.5250  17.667286 11.151922  1.211761
332   1  0.5250  15.097215  9.668168  8.507353
333   1  0.5250  12.527144  8.184414 15.802945
334   1  0.5250   9.957073  6.700660 23.098537
335   1  0.5250   7.387002  5.216906 30.394129
336   1  0.5250  17.673754 17.103655  1.211761
337   1  0.5250  15.103683 15.619901  8.507353
338   1  0.5250  12.533612 14.136147 15.802945
339   1  0.5250   9.963541 12.652393 23.098537
340   1  0.5250   7.393470 11.168639 30.394129
341   1  0.5250  17.680222 23.055388  1.211761
342   1  0.5250  15.110151 21.571634  8.507353
343   1  0.5250  12.540080 20.087880 15.802945
344   1  0.5250   9.970009 18.604126 23.098537
345   1  0.5250   7.399938 17.120372 30.394129
346   1  0.5250  17.686690 29.007121  1.211761
347   1  0.5250  15.116619 27.523367  8.507353
348   1  0.5250  12.546548 26.039613 15.802945
349   1  0.5250   9.976477 24.555859 23.098537
350   1  0.5250   7.406406 23.072105 30.394129
351   1  0.5250  22.828532  5.200189  1.211761
352   1  0.5250  20.258461  3.716435  8.507353
353   1  0.5250  17.688390  2.232681 15.802945
354   1  0.5250  15.118319  0.748927 23.098537
355   1  0.5250  12.548248 -0.734827 30.394129
356   1  0.5250  22.835000 11.151922  1.211761
357   1  0.5250  20.264929  9.668168  8.507353
358   1  0.5250  17.694858  8.184414 15.802945
359   1  0.5250  15.124787  6.700660 23.098537
360   1  0.5250  12.554716  5.216906 30.394129
361   1  0.5250  22.841468 17.103655  1.211761
362   1  0.5250  20.271397 15.619901  8.507353
363   1  0.5250  17.701326 14.136147 15.802945
364   1  0.5250  15.131255 12.652393 23.098537
365   1  0.5250  12.561184 11.168639 30.394129
366   1  0.5250  22.847936 23.055388  1.211761
367   1  0.5250  20.277865 21.571634  8.507353
368   1  0.5250  17.707794 20.087880 15.802945
369   1  0.5250  15.137723 18.604126 23.098537
370   1  0.5250  12.567652 17.120372 30.394129
371   1  0.5250  22.854404 29.007121  1.211761
372   1  0.5250  20.284333 27.523367  8.507353
373   1  0.5250  17.714262 26.039613 15.802945
374   1  0.5250  15.144191 24.555859 23.098537
375   1  0.5250  12.574120 23.072105 30.394129
376   1  0.5250   2.157514  2.234285  1.215365
377   1  0.5250  -0.412557  0.750531  8.510957
378   1  0.5250  -2.982628 -0.733223 15.806549
379   1  0.5250  -5.552699 -2.216977 23.102141
380   1  0.5250  -8.122770 -3.700731 30.397733
381   1  0.5250   2.163982  8.186018  1.215365
382   1  0.5250  -0.406089  6.702264  8.510957
383   1  0.5250  -2.976160  5.218510 15.806549
384   1  0.5250  -5.546231  3.734756 23.102141
385   1  0.5250  -8.116302  2.251002 30.397733
386   1  0.5250   2.170450 14.137751  1.215365
387   1  0.5250  -0.399621 12.653997  8.510957
388   1  0.5250  -2.969692 11.170243 15.806549
389   1  0.5250  -5.539763  9.686489 23.102141
390   1  0.5250  -8.109834  8.202735 30.397733
391   1  0.5250   2.176918 20.089484  1.215365
392   1  0.5250  -0.393153 18.605730  8.510957
393   1  0.5250  -2.963224 17.121976 15.806549
394   1  0.5250  -5.533295 15.638222 23.102141
395   1  0.5250  -8.103366 14.154468 30.397733
396   1  0.5250   2.183386 26.041217  1.215365
397   1  0.5250  -0.386685 24.557463  8.510957
398   1  0.5250  -2.956756 23.073709 15.806549
399   1  0.5250  -5.526827 21.589955 23.102141
400   1  0.5250  -8.096898 20.106201 30.397733
401   1  0.5250   7.325228  2.234285  1.215365
402   1  0.5250   4.755157  0.750531  8.510957
403   1  0.5250   2.185086 -0.733223 15.806549
404   1  0.5250  -0.384985 -2.216977 23.102141
405   1  0.5250  -2.955056 -3.700731 30.397733
406   1  0.5250   7.331696  8.186018  1.215365
407   1  0.5250   4.761625  6.702264  8.510957
408   1  0.5250   2.191554  5.218510 15.806549
409   1  0.5250  -0.378517  3.734756 23.102141
410   1  0.5250  -2.948588  2.251002 30.397733
411   1  0.5250   7.338164 14.137751  1.215365
412   1  0.5250   4.768093 12.653997  8.510957
413   1  0.5250   2.198022 11.170243 15.806549
414   1  0.5250  -0.372049  9.686489 23.102141
415   1  0.5250  -2.942120  8.202735 30.397733
416   1  0.5250   7.344632 20.089484  1.215365
417   1  0.5250   4.774561 18.605730  8.510957
418   1  0.5250   2.204490 17.121976 15.806549
419   1  0.5250  -0.365581 15.638222 23.102141
420   1  0.5250  -2.935652 14.154468 30.397733
421   1  0.5250   7.351100 26.041217  1.215365
422   1  0.5250   4.781029 24.557463  8.510957
423   1  0.5250   2.210958 23.073709 15.806549
424   1  0.5250  -0.359113 21.589955 23.102141
425   1  0.5250  -2.929184 20.106201 30.397733
426   1  0.5250  12.492942  2.234285  1.215365
427   1  0.5250   9.922871  0.750531  8.510957
428   1  0.5250   7.352800 -0.733223 15.806549
429   1  0.5250   4.782729 -2.216977 23.102141
430   1  0.5250   2.212658 -3.700731 30.397733
431   1  0.5250  12.499410  8.186018  1.215365
432   1  0.5250   9.929339  6.702264  8.510957
433   1  0.5250   7.359268  5.218510 15.806549
434   1  0.5250   4.789197  3.734756 23.102141
435   1  0.5250   2.219126  2.251002 30.397733
436   1  0.5250  12.505878 14.137751  1.215365
437   1  0.5250   9.935807 12.653997  8.510957
438   1  0.5250   7.365736 11.170243 15.806549
439   1  0.5250   4.795665  9.686489 23.102141
440   1  0.5250   2.225594  8.202735 30.397733
441   1  0.5250  12.512346 20.089484  1.215365
442   1  0.5250   9.942275 18.605730  8.510957
443   1  0.5250   7.372204 17.121976 15.806549
444   1  0.5250   4.802133 15.638222 23.102141
445   1  0.5250   2.232062 14.154468 30.397733
446   1  0.5250  12.518814 26.041217  1.215365
447   1  0.5250   9.948743 24.557463  8.510957
448   1  0.5250   7.378672 23.073709 15.806549
449   1  0.5250   4.808601 21.589955 23.102141
450   1  0.5250   2.238530 20.106201 30.397733
451   1  0.5250  17.660656  2.234285  1.215365
452   1  0.5250  15.090585  0.750531  8.510957
453   1  0.5250  12.520514 -0.733223 15.806549
454   1  0.5250   9.950443 -2.216977 23.102141
455   1  0.5250   7.380372 -3.700731 30.397733
456   1  0.5250  17.667124  8.186018  1.215365
457   1  0.5250  15.097053  6.702264  8.510957
458   1  0.5250  12.526982  5.218510 15.806549
459   1  0.5250   9.956911  3.734756 23.102141
460   1  0.5250   7.386840  2.251002 30.397733
461   1  0.5250  17.673592 14.137751  1.215365
462   1  0.5250  15.103521 12.653997  8.510957
463   1  0.5250  12.533450 11.170243 15.806549
464   1  0.5250   9.963379  9.686489 23.102141
465   1  0.5250   7.393308  8.202735 30.397733
466   1  0.5250  17.680060 20.089484  1.215365
467   1  0.5250  15.109989 18.605730  8.510957
468   1  0.5250  12.539918 17.121976 15.806549
469   1  0.5250   9.969847 15.638222 23.102141
470   1  0.5250   7.399776 14.154468 30.397733
471   1  0.5250  17.686528 26.041217  1.215365
472   1  0.5250  15.116457 24.557463  8.510957
473   1  0.5250  12.546386 23.073709 15.806549
474   1  0.5250   9.976315 21.589955 23.102141
475   1  0.5250   7.406244 20.106201 30.397733
476   1  0.5250  22.828370  2.234285  1.215365
477   1  0.5250  20.258299  0.750531  8.510957
478   1  0.5250  17.688228 -0.733223 15.806549
479   1  0.5250  15.118157 -2.216977 23.102141
480   1  0.5250  12.548086 -3.700731 30.397733
481   1  0.5250  22.834838  8.186018  1.215365
482   1  0.5250  20.264767  6.702264  8.510957
483   1  0.5250  17.694696  5.218510 15.806549
484   1  0.5250  15.124625  3.734756 23.102141
485   1  0.5250  12.554554  2.251002 30.397733
486   1  0.5250  22.841306 14.137751  1.215365
487   1  0.5250  20.271235 12.653997  8.510957
488   1  0.5250  17.701164 11.170243 15.806549
489   1  0.5250  15.131093  9.686489 23.102141
490   1  0.5250  12.561022  8.202735 30.397733
491   1  0.5250  22.847774 20.089484  1.215365
492   1  0.5250  20.277703 18.605730  8.510957
493   1  0.5250  17.707632 17.121976 15.806549
494   1  0.5250  15.137561 15.638222 23.102141
495   1  0.5250  12.567490 14.154468 30.397733
496   1  0.5250  22.854242 26.041217  1.215365
497   1  0.5250  20.284171 24.557463  8.510957
498   1  0.5250  17.714100 23.073709 15.806549
499   1  0.5250  15.144029 21.589955 23.102141
500   1  0.5250  12.573958 20.106201 30.397733
501   1  0.5250   0.446435 -0.732210  6.083831
502   1  0.5250  -2.123636 -2.215964 13.379423
503   1  0.5250  -4.693707 -3.699718 20.675015
504   1  0.5250  -7.263778 -5.183472 27.970607
505   1  0.5250  -9.833849 -6.667226 35.266199
506   1  0.5250   0.452903  5.219523  6.083831
507   1  0.5250  -2.117168  3.735769 13.379423
508   1  0.5250  -4.687239  2.252015 20.675015
509   1  0.5250  -7.257310  0.768261 27.970607
510   1  0.5250  -9.827381 -0.715493 35.266199
511   1  0.5250   0.459371 11.171256  6.083831
512   1  0.5250  -2.110700  9.687502 13.379423
513   1  0.5250  -4.680771  8.203748 20.675015
514   1  0.5250  -7.250842  6.719994 27.970607
515   1  0.5250  -9.820913  5.236240 35.266199
516   1  0.5250   0.465839 17.122989  6.083831
517   1  0.5250  -2.104232 15.639235 13.379423
518   1  0.5250  -4.674303 14.155481 20.675015
519   1  0.5250  -7.244374 12.671727 27.970607
520   1  0.5250  -9.814445 11.187973 35.266199
521   1  0.5250   0.472307 23.074722  6.083831
522   1  0.5250  -2.097764 21.590968 13.379423
523   1  0.5250  -4.667835 20.107214 20.675015
524   1  0.5250  -7.237906 18.623460 27.970607
525   1  0.5250  -9.807977 17.139706 35.266199
526   1  0.5250   5.614149 -0.732210  6.083831
527   1  0.5250   3.044078 -2.215964 13.379423
528   1  0.5250   0.474007 -3.699718 20.675015
529   1  0.5250  -2.096064 -5.183472 27.970607
530   1  0.5250  -4.666135 -6.667226 35.266199
531   1  0.5250   5.620617  5.219523  6.083831
532   1  0.5250   3.050546  3.735769 13.379423
533   1  0.5250   0.480475  2.252015 20.675015
534   1  0.5250  -2.089596  0.768261 27.970607
535   1  0.5250  -4.659667 -0.715493 35.266199
536   1  0.5250   5.627085 11.171256  6.083831
537   1  0.5250   3.057014  9.687502 13.379423
538   1  0.5250   0.486943  8.203748 20.675015
539   1  0.5250  -2.083128  6.719994 27.970607
540   1  0.5250  -4.653199  5.236240 35.266199
541   1  0.5250   5.633553 17.122989  6.083831
542   1  0.5250   3.063482 15.639235 13.379423
543   1  0.5250   0.493411 14.155481 20.675015
544   1  0.5250  -2.076660 12.671727 27.970607
545   1  0.5250  -4.646731 11.187973 35.266199
546   1  0.5250   5.640021 23.074722  6.083831
547   1  0.5250   3.069950 21.590968 13.379423
548   1  0.5250   0.499879 20.107214 20.675015
549   1  0.5250  -2.070192 18.623460 27.970607
550   1  0.5250  -4.640263 17.139706 35.266199
551   1  0.5250  10.781863 -0.732210  6.083831
552   1  0.5250   8.211792 -2.215964 13.379423
553   1  0.5250   5.641721 -3.699718 20.675015
554   1  0.5250   3.071650 -5.183472 27.970607
555   1  0.5250   0.501579 -6.667226 35.266199
556   1  0.5250  10.788331  5.219523  6.083831
557   1  0.5250   8.218260  3.735769 13.379423
558   1  0.5250   5.648189  2.252015 20.675015
559   1  0.5250   3.078118  0.768261 27.970607
560   1  0.5250   0.508047 -0.715493 35.266199
561   1  0.5250  10.794799 11.171256  6.083831
562   1  0.5250   8.224728  9.687502 13.379423
563   1  0.5250   5.654657  8.203748 20.675015
564   1  0.5250   3.084586  6.719994 27.970607
565   1  0.5250   0.514515  5.236240 35.266199
566   1  0.5250  10.801267 17.122989  6.083831
567   1  0.5250   8.231196 15.639235 13.379423
568   1  0.5250   5.661125 14.155481 20.675015
569   1  0.5250   3.091054 12.671727 27.970607
570   1  0.5250   0.520983 11.187973 35.266199
571   1  0.5250  10.807735 23.074722  6.083831
572   1  0.5250   8.237664 21.590968 13.379423
573   1  0.5250   5.667593 20.107214 20.675015
574   1  0.5250   3.097522 18.623460 27.970607
575   1  0.5250   0.527451 17.139706 35.266199
576   1  0.5250  15.949577 -0.732210  6.083831
577   1  0.5250  13.379506 -2.215964 13.379423
578   1  0.5250  10.809435 -3.699718 20.675015
579   1  0.5250   8.239364 -5.183472 27.970607
580   1  0.5250   5.669293 -6.667226 35.266199
581   1  0.5250  15.956045  5.219523  6.083831
582   1  0.5250  13.385974  3.735769 13.379423
583   1  0.5250  10.815903  2.252015 20.675015
584   1  0.5250   8.245832  0.768261 27.970607
585   1  0.5250   5.675761 -0.715493 35.266199
586   1  0.5250  15.962513 11.171256  6.083831
587   1  0.5250  13.392442  9.687502 13.379423
588   1  0.5250  10.822371  8.203748 20.675015
589   1  0.5250   8.252300  6.719994 27.970607
590   1  0.5250   5.682229  5.236240 35.266199
591   1  0.5250  15.968981 17.122989  6.083831
592   1  0.5250  13.398910 15.639235 13.379423
593   1  0.5250  10.828839 14.155481 20.675015
594   1  0.5250   8.258768 12.671727 27.970607
595   1  0.5250   5.688697 11.187973 35.266199
596   1  0.5250  15.975449 23.074722  6.083831
597   1  0.5250  13.405378 21.590968 13.379423
598   1  0.5250  10.835307 20.107214 20.675015
599   1  0.5250   8.265236 18.623460 27.970607
600   1  0.5250   5.695165 17.139706 35.266199
601   1  0.5250  21.117291 -0.732210  6.083831
602   1  0.5250  18.547220 -2.215964 13.379423
603   1  0.5250  15.977149 -3.699718 20.675015
604   1  0.5250  13.407078 -5.183472 27.970607
605   1  0.5250  10.837007 -6.667226 35.266199
606   1  0.5250  21.123759  5.219523  6.083831
607   1  0.5250  18.553688  3.735769 13.379423
608   1  0.5250  15.983617  2.252015 20.675015
609   1  0.5250  13.413546  0.768261 27.970607
610   1  0.5250  10.843475 -0.715493 35.266199
611   1  0.5250  21.130227 11.171256  6.083831
612   1  0.5250  18.560156  9.687502 13.379423
613   1  0.5250  15.990085  8.203748 20.675015
614   1  0.5250  13.420014  6.719994 27.970607
615   1  0.5250  10.849943  5.236240 35.266199
616   1  0.5250  21.136695 17.122989  6.083831
617   1  0.5250  18.566624 15.639235 13.379423
618   1  0.5250  15.996553 14.155481 20.675015
619   1  0.5250  13.426482 12.671727 27.970607
620   1  0.5250  10.856411 11.187973 35.266199
621   1  0.5250  21.143163 23.074722  6.083831
622   1  0.5250  18.573092 21.590968 13.379423
623   1  0.5250  16.003021 20.107214 20.675015
624   1  0.5250  13.432950 18.623460 27.970607
625   1  0.5250  10.862879 17.139706 35.266199
626   1  0.5250   0.446597  2.233694  6.080227
627   1  0.5250  -2.123474  0.749940 13.375819
628   1  0.5250  -4.693545 -0.733814 20.671411
629   1  0.5250  -7.263616 -2.217568 27.967003
630   1  0.5250  -9.833687 -3.701322 35.262595
631   1  0.5250   0.453065  8.185427  6.080227
632   1  0.5250  -2.117006  6.701673 13.375819