Generated by pymatgen.io.lammps.data.LammpsData

3888  atoms

   4  atom types

0.000000 34.091274  xlo xhi
0.000000 34.817850  ylo yhi
0.000000 51.659238  zlo zhi
2.983614 14.473608 4.972188  xy xz yz

Masses

1  85.4678
2   6.9410
3  72.6400
4  15.9994

Atoms

1     1  0.8200  4.849044  5.536980  6.275693
2     1  0.8200  7.261312  6.365678 14.885566
3     1  0.8200  9.673580  7.194376 23.495439
4     1  0.8200 12.085848  8.023074 32.105312
5     1  0.8200 14.498116  8.851772 40.715185
6     1  0.8200 16.910384  9.680470 49.325058
7     1  0.8200  5.346313 11.339955  6.275693
8     1  0.8200  7.758581 12.168653 14.885566
9     1  0.8200 10.170849 12.997351 23.495439
10    1  0.8200 12.583117 13.826049 32.105312
11    1  0.8200 14.995385 14.654747 40.715185
12    1  0.8200 17.407653 15.483445 49.325058
13    1  0.8200  5.843582 17.142930  6.275693
14    1  0.8200  8.255850 17.971628 14.885566
15    1  0.8200 10.668118 18.800326 23.495439
16    1  0.8200 13.080386 19.629024 32.105312
17    1  0.8200 15.492654 20.457722 40.715185
18    1  0.8200 17.904922 21.286420 49.325058
19    1  0.8200  6.340851 22.945905  6.275693
20    1  0.8200  8.753119 23.774603 14.885566
21    1  0.8200 11.165387 24.603301 23.495439
22    1  0.8200 13.577655 25.431999 32.105312
23    1  0.8200 15.989923 26.260697 40.715185
24    1  0.8200 18.402191 27.089395 49.325058
25    1  0.8200  6.838120 28.748880  6.275693
26    1  0.8200  9.250388 29.577578 14.885566
27    1  0.8200 11.662656 30.406276 23.495439
28    1  0.8200 14.074924 31.234974 32.105312
29    1  0.8200 16.487192 32.063672 40.715185
30    1  0.8200 18.899460 32.892370 49.325058
31    1  0.8200  7.335389 34.551855  6.275693
32    1  0.8200  9.747657 35.380553 14.885566
33    1  0.8200 12.159925 36.209251 23.495439
34    1  0.8200 14.572193 37.037949 32.105312
35    1  0.8200 16.984461 37.866647 40.715185
36    1  0.8200 19.396729 38.695345 49.325058
37    1  0.8200 10.530923  5.536980  6.275693
38    1  0.8200 12.943191  6.365678 14.885566
39    1  0.8200 15.355459  7.194376 23.495439
40    1  0.8200 17.767727  8.023074 32.105312
41    1  0.8200 20.179995  8.851772 40.715185
42    1  0.8200 22.592263  9.680470 49.325058
43    1  0.8200 11.028192 11.339955  6.275693
44    1  0.8200 13.440460 12.168653 14.885566
45    1  0.8200 15.852728 12.997351 23.495439
46    1  0.8200 18.264996 13.826049 32.105312
47    1  0.8200 20.677264 14.654747 40.715185
48    1  0.8200 23.089532 15.483445 49.325058
49    1  0.8200 11.525461 17.142930  6.275693
50    1  0.8200 13.937729 17.971628 14.885566
51    1  0.8200 16.349997 18.800326 23.495439
52    1  0.8200 18.762265 19.629024 32.105312
53    1  0.8200 21.174533 20.457722 40.715185
54    1  0.8200 23.586801 21.286420 49.325058
55    1  0.8200 12.022730 22.945905  6.275693
56    1  0.8200 14.434998 23.774603 14.885566
57    1  0.8200 16.847266 24.603301 23.495439
58    1  0.8200 19.259534 25.431999 32.105312
59    1  0.8200 21.671802 26.260697 40.715185
60    1  0.8200 24.084070 27.089395 49.325058
61    1  0.8200 12.519999 28.748880  6.275693
62    1  0.8200 14.932267 29.577578 14.885566
63    1  0.8200 17.344535 30.406276 23.495439
64    1  0.8200 19.756803 31.234974 32.105312
65    1  0.8200 22.169071 32.063672 40.715185
66    1  0.8200 24.581339 32.892370 49.325058
67    1  0.8200 13.017268 34.551855  6.275693
68    1  0.8200 15.429536 35.380553 14.885566
69    1  0.8200 17.841804 36.209251 23.495439
70    1  0.8200 20.254072 37.037949 32.105312
71    1  0.8200 22.666340 37.866647 40.715185
72    1  0.8200 25.078608 38.695345 49.325058
73    1  0.8200 16.212802  5.536980  6.275693
74    1  0.8200 18.625070  6.365678 14.885566
75    1  0.8200 21.037338  7.194376 23.495439
76    1  0.8200 23.449606  8.023074 32.105312
77    1  0.8200 25.861874  8.851772 40.715185
78    1  0.8200 28.274142  9.680470 49.325058
79    1  0.8200 16.710071 11.339955  6.275693
80    1  0.8200 19.122339 12.168653 14.885566
81    1  0.8200 21.534607 12.997351 23.495439
82    1  0.8200 23.946875 13.826049 32.105312
83    1  0.8200 26.359143 14.654747 40.715185
84    1  0.8200 28.771411 15.483445 49.325058
85    1  0.8200 17.207340 17.142930  6.275693
86    1  0.8200 19.619608 17.971628 14.885566
87    1  0.8200 22.031876 18.800326 23.495439
88    1  0.8200 24.444144 19.629024 32.105312
89    1  0.8200 26.856412 20.457722 40.715185
90    1  0.8200 29.268680 21.286420 49.325058
91    1  0.8200 17.704609 22.945905  6.275693
92    1  0.8200 20.116877 23.774603 14.885566
93    1  0.8200 22.529145 24.603301 23.495439
94    1  0.8200 24.941413 25.431999 32.105312
95    1  0.8200 27.353681 26.260697 40.715185
96    1  0.8200 29.765949 27.089395 49.325058
97    1  0.8200 18.201878 28.748880  6.275693
98    1  0.8200 20.614146 29.577578 14.885566
99    1  0.8200 23.026414 30.406276 23.495439
100   1  0.8200 25.438682 31.234974 32.105312
101   1  0.8200 27.850950 32.063672 40.715185
102   1  0.8200 30.263218 32.892370 49.325058
103   1  0.8200 18.699147 34.551855  6.275693
104   1  0.8200 21.111415 35.380553 14.885566
105   1  0.8200 23.523683 36.209251 23.495439
106   1  0.8200 25.935951 37.037949 32.105312
107   1  0.8200 28.348219 37.866647 40.715185
108   1  0.8200 30.760487 38.695345 49.325058
109   1  0.8200 21.894681  5.536980  6.275693
110   1  0.8200 24.306949  6.365678 14.885566
111   1  0.8200 26.719217  7.194376 23.495439
112   1  0.8200 29.131485  8.023074 32.105312
113   1  0.8200 31.543753  8.851772 40.715185
114   1  0.8200 33.956021  9.680470 49.325058
115   1  0.8200 22.391950 11.339955  6.275693
116   1  0.8200 24.804218 12.168653 14.885566
117   1  0.8200 27.216486 12.997351 23.495439
118   1  0.8200 29.628754 13.826049 32.105312
119   1  0.8200 32.041022 14.654747 40.715185
120   1  0.8200 34.453290 15.483445 49.325058
121   1  0.8200 22.889219 17.142930  6.275693
122   1  0.8200 25.301487 17.971628 14.885566
123   1  0.8200 27.713755 18.800326 23.495439
124   1  0.8200 30.126023 19.629024 32.105312
125   1  0.8200 32.538291 20.457722 40.715185
126   1  0.8200 34.950559 21.286420 49.325058
127   1  0.8200 23.386488 22.945905  6.275693
128   1  0.8200 25.798756 23.774603 14.885566
129   1  0.8200 28.211024 24.603301 23.495439
130   1  0.8200 30.623292 25.431999 32.105312
131   1  0.8200 33.035560 26.260697 40.715185
132   1  0.8200 35.447828 27.089395 49.325058
133   1  0.8200 23.883757 28.748880  6.275693
134   1  0.8200 26.296025 29.577578 14.885566
135   1  0.8200 28.708293 30.406276 23.495439
136   1  0.8200 31.120561 31.234974 32.105312
137   1  0.8200 33.532829 32.063672 40.715185
138   1  0.8200 35.945097 32.892370 49.325058
139   1  0.8200 24.381026 34.551855  6.275693
140   1  0.8200 26.793294 35.380553 14.885566
141   1  0.8200 29.205562 36.209251 23.495439
142   1  0.8200 31.617830 37.037949 32.105312
143   1  0.8200 34.030098 37.866647 40.715185
144   1  0.8200 36.442366 38.695345 49.325058
145   1  0.8200 27.576560  5.536980  6.275693
146   1  0.8200 29.988828  6.365678 14.885566
147   1  0.8200 32.401096  7.194376 23.495439
148   1  0.8200 34.813364  8.023074 32.105312
149   1  0.8200 37.225632  8.851772 40.715185
150   1  0.8200 39.637900  9.680470 49.325058
151   1  0.8200 28.073829 11.339955  6.275693
152   1  0.8200 30.486097 12.168653 14.885566
153   1  0.8200 32.898365 12.997351 23.495439
154   1  0.8200 35.310633 13.826049 32.105312
155   1  0.8200 37.722901 14.654747 40.715185
156   1  0.8200 40.135169 15.483445 49.325058
157   1  0.8200 28.571098 17.142930  6.275693
158   1  0.8200 30.983366 17.971628 14.885566
159   1  0.8200 33.395634 18.800326 23.495439
160   1  0.8200 35.807902 19.629024 32.105312
161   1  0.8200 38.220170 20.457722 40.715185
162   1  0.8200 40.632438 21.286420 49.325058
163   1  0.8200 29.068367 22.945905  6.275693
164   1  0.8200 31.480635 23.774603 14.885566
165   1  0.8200 33.892903 24.603301 23.495439
166   1  0.8200 36.305171 25.431999 32.105312
167   1  0.8200 38.717439 26.260697 40.715185
168   1  0.8200 41.129707 27.089395 49.325058
169   1  0.8200 29.565636 28.748880  6.275693
170   1  0.8200 31.977904 29.577578 14.885566
171   1  0.8200 34.390172 30.406276 23.495439
172   1  0.8200 36.802440 31.234974 32.105312
173   1  0.8200 39.214708 32.063672 40.715185
174   1  0.8200 41.626976 32.892370 49.325058
175   1  0.8200 30.062905 34.551855  6.275693
176   1  0.8200 32.475173 35.380553 14.885566
177   1  0.8200 34.887441 36.209251 23.495439
178   1  0.8200 37.299709 37.037949 32.105312
179   1  0.8200 39.711977 37.866647 40.715185
180   1  0.8200 42.124245 38.695345 49.325058
181   1  0.8200 33.258439  5.536980  6.275693
182   1  0.8200 35.670707  6.365678 14.885566
183   1  0.8200 38.082975  7.194376 23.495439
184   1  0.8200 40.495243  8.023074 32.105312
185   1  0.8200 42.907511  8.851772 40.715185
186   1  0.8200 45.319779  9.680470 49.325058
187   1  0.8200 33.755708 11.339955  6.275693
188   1  0.8200 36.167976 12.168653 14.885566
189   1  0.8200 38.580244 12.997351 23.495439
190   1  0.8200 40.992512 13.826049 32.105312
191   1  0.8200 43.404780 14.654747 40.715185
192   1  0.8200 45.817048 15.483445 49.325058
193   1  0.8200 34.252977 17.142930  6.275693
194   1  0.8200 36.665245 17.971628 14.885566
195   1  0.8200 39.077513 18.800326 23.495439
196   1  0.8200 41.489781 19.629024 32.105312
197   1  0.8200 43.902049 20.457722 40.715185
198   1  0.8200 46.314317 21.286420 49.325058
199   1  0.8200 34.750246 22.945905  6.275693
200   1  0.8200 37.162514 23.774603 14.885566
201   1  0.8200 39.574782 24.603301 23.495439
202   1  0.8200 41.987050 25.431999 32.105312
203   1  0.8200 44.399318 26.260697 40.715185
204   1  0.8200 46.811586 27.089395 49.325058
205   1  0.8200 35.247515 28.748880  6.275693
206   1  0.8200 37.659783 29.577578 14.885566
207   1  0.8200 40.072051 30.406276 23.495439
208   1  0.8200 42.484319 31.234974 32.105312
209   1  0.8200 44.896587 32.063672 40.715185
210   1  0.8200 47.308855 32.892370 49.325058
211   1  0.8200 35.744784 34.551855  6.275693
212   1  0.8200 38.157052 35.380553 14.885566
213   1  0.8200 40.569320 36.209251 23.495439
214   1  0.8200 42.981588 37.037949 32.105312
215   1  0.8200 45.393856 37.866647 40.715185
216   1  0.8200 47.806124 38.695345 49.325058
217   1  0.8200  3.742372  1.094693  2.334180
218   1  0.8200  6.154640  1.923391 10.944053
219   1  0.8200  8.566908  2.752089 19.553926
220   1  0.8200 10.979176  3.580787 28.163799
221   1  0.8200 13.391444  4.409485 36.773672
222   1  0.8200 15.803712  5.238183 45.383545
223   1  0.8200  4.239641  6.897668  2.334180
224   1  0.8200  6.651909  7.726366 10.944053
225   1  0.8200  9.064177  8.555064 19.553926
226   1  0.8200 11.476445  9.383762 28.163799
227   1  0.8200 13.888713 10.212460 36.773672
228   1  0.8200 16.300981 11.041158 45.383545
229   1  0.8200  4.736910 12.700643  2.334180
230   1  0.8200  7.149178 13.529341 10.944053
231   1  0.8200  9.561446 14.358039 19.553926
232   1  0.8200 11.973714 15.186737 28.163799
233   1  0.8200 14.385982 16.015435 36.773672
234   1  0.8200 16.798250 16.844133 45.383545
235   1  0.8200  5.234179 18.503618  2.334180
236   1  0.8200  7.646447 19.332316 10.944053
237   1  0.8200 10.058715 20.161014 19.553926
238   1  0.8200 12.470983 20.989712 28.163799
239   1  0.8200 14.883251 21.818410 36.773672
240   1  0.8200 17.295519 22.647108 45.383545
241   1  0.8200  5.731448 24.306593  2.334180
242   1  0.8200  8.143716 25.135291 10.944053
243   1  0.8200 10.555984 25.963989 19.553926
244   1  0.8200 12.968252 26.792687 28.163799
245   1  0.8200 15.380520 27.621385 36.773672
246   1  0.8200 17.792788 28.450083 45.383545
247   1  0.8200  6.228717 30.109568  2.334180
248   1  0.8200  8.640985 30.938266 10.944053
249   1  0.8200 11.053253 31.766964 19.553926
250   1  0.8200 13.465521 32.595662 28.163799
251   1  0.8200 15.877789 33.424360 36.773672
252   1  0.8200 18.290057 34.253058 45.383545
253   1  0.8200  9.424251  1.094693  2.334180
254   1  0.8200 11.836519  1.923391 10.944053
255   1  0.8200 14.248787  2.752089 19.553926
256   1  0.8200 16.661055  3.580787 28.163799
257   1  0.8200 19.073323  4.409485 36.773672
258   1  0.8200 21.485591  5.238183 45.383545
259   1  0.8200  9.921520  6.897668  2.334180
260   1  0.8200 12.333788  7.726366 10.944053
261   1  0.8200 14.746056  8.555064 19.553926
262   1  0.8200 17.158324  9.383762 28.163799
263   1  0.8200 19.570592 10.212460 36.773672
264   1  0.8200 21.982860 11.041158 45.383545
265   1  0.8200 10.418789 12.700643  2.334180
266   1  0.8200 12.831057 13.529341 10.944053
267   1  0.8200 15.243325 14.358039 19.553926
268   1  0.8200 17.655593 15.186737 28.163799
269   1  0.8200 20.067861 16.015435 36.773672
270   1  0.8200 22.480129 16.844133 45.383545
271   1  0.8200 10.916058 18.503618  2.334180
272   1  0.8200 13.328326 19.332316 10.944053
273   1  0.8200 15.740594 20.161014 19.553926
274   1  0.8200 18.152862 20.989712 28.163799
275   1  0.8200 20.565130 21.818410 36.773672
276   1  0.8200 22.977398 22.647108 45.383545
277   1  0.8200 11.413327 24.306593  2.334180
278   1  0.8200 13.825595 25.135291 10.944053
279   1  0.8200 16.237863 25.963989 19.553926
280   1  0.8200 18.650131 26.792687 28.163799
281   1  0.8200 21.062399 27.621385 36.773672
282   1  0.8200 23.474667 28.450083 45.383545
283   1  0.8200 11.910596 30.109568  2.334180
284   1  0.8200 14.322864 30.938266 10.944053
285   1  0.8200 16.735132 31.766964 19.553926
286   1  0.8200 19.147400 32.595662 28.163799
287   1  0.8200 21.559668 33.424360 36.773672
288   1  0.8200 23.971936 34.253058 45.383545
289   1  0.8200 15.106130  1.094693  2.334180
290   1  0.8200 17.518398  1.923391 10.944053
291   1  0.8200 19.930666  2.752089 19.553926
292   1  0.8200 22.342934  3.580787 28.163799
293   1  0.8200 24.755202  4.409485 36.773672
294   1  0.8200 27.167470  5.238183 45.383545
295   1  0.8200 15.603399  6.897668  2.334180
296   1  0.8200 18.015667  7.726366 10.944053
297   1  0.8200 20.427935  8.555064 19.553926
298   1  0.8200 22.840203  9.383762 28.163799
299   1  0.8200 25.252471 10.212460 36.773672
300   1  0.8200 27.664739 11.041158 45.383545
301   1  0.8200 16.100668 12.700643  2.334180
302   1  0.8200 18.512936 13.529341 10.944053
303   1  0.8200 20.925204 14.358039 19.553926
304   1  0.8200 23.337472 15.186737 28.163799
305   1  0.8200 25.749740 16.015435 36.773672
306   1  0.8200 28.162008 16.844133 45.383545
307   1  0.8200 16.597937 18.503618  2.334180
308   1  0.8200 19.010205 19.332316 10.944053
309   1  0.8200 21.422473 20.161014 19.553926
310   1  0.8200 23.834741 20.989712 28.163799
311   1  0.8200 26.247009 21.818410 36.773672
312   1  0.8200 28.659277 22.647108 45.383545
313   1  0.8200 17.095206 24.306593  2.334180
314   1  0.8200 19.507474 25.135291 10.944053
315   1  0.8200 21.919742 25.963989 19.553926
316   1  0.8200 24.332010 26.792687 28.163799
317   1  0.8200 26.744278 27.621385 36.773672
318   1  0.8200 29.156546 28.450083 45.383545
319   1  0.8200 17.592475 30.109568  2.334180
320   1  0.8200 20.004743 30.938266 10.944053
321   1  0.8200 22.417011 31.766964 19.553926
322   1  0.8200 24.829279 32.595662 28.163799
323   1  0.8200 27.241547 33.424360 36.773672
324   1  0.8200 29.653815 34.253058 45.383545
325   1  0.8200 20.788009  1.094693  2.334180
326   1  0.8200 23.200277  1.923391 10.944053
327   1  0.8200 25.612545  2.752089 19.553926
328   1  0.8200 28.024813  3.580787 28.163799
329   1  0.8200 30.437081  4.409485 36.773672
330   1  0.8200 32.849349  5.238183 45.383545
331   1  0.8200 21.285278  6.897668  2.334180
332   1  0.8200 23.697546  7.726366 10.944053
333   1  0.8200 26.109814  8.555064 19.553926
334   1  0.8200 28.522082  9.383762 28.163799
335   1  0.8200 30.934350 10.212460 36.773672
336   1  0.8200 33.346618 11.041158 45.383545
337   1  0.8200 21.782547 12.700643  2.334180
338   1  0.8200 24.194815 13.529341 10.944053
339   1  0.8200 26.607083 14.358039 19.553926
340   1  0.8200 29.019351 15.186737 28.163799
341   1  0.8200 31.431619 16.015435 36.773672
342   1  0.8200 33.843887 16.844133 45.383545
343   1  0.8200 22.279816 18.503618  2.334180
344   1  0.8200 24.692084 19.332316 10.944053
345   1  0.8200 27.104352 20.161014 19.553926
346   1  0.8200 29.516620 20.989712 28.163799
347   1  0.8200 31.928888 21.818410 36.773672
348   1  0.8200 34.341156 22.647108 45.383545
349   1  0.8200 22.777085 24.306593  2.334180
350   1  0.8200 25.189353 25.135291 10.944053
351   1  0.8200 27.601621 25.963989 19.553926
352   1  0.8200 30.013889 26.792687 28.163799
353   1  0.8200 32.426157 27.621385 36.773672
354   1  0.8200 34.838425 28.450083 45.383545
355   1  0.8200 23.274354 30.109568  2.334180
356   1  0.8200 25.686622 30.938266 10.944053
357   1  0.8200 28.098890 31.766964 19.553926
358   1  0.8200 30.511158 32.595662 28.163799
359   1  0.8200 32.923426 33.424360 36.773672
360   1  0.8200 35.335694 34.253058 45.383545
361   1  0.8200 26.469888  1.094693  2.334180
362   1  0.8200 28.882156  1.923391 10.944053
363   1  0.8200 31.294424  2.752089 19.553926
364   1  0.8200 33.706692  3.580787 28.163799
365   1  0.8200 36.118960  4.409485 36.773672
366   1  0.8200 38.531228  5.238183 45.383545
367   1  0.8200 26.967157  6.897668  2.334180
368   1  0.8200 29.379425  7.726366 10.944053
369   1  0.8200 31.791693  8.555064 19.553926
370   1  0.8200 34.203961  9.383762 28.163799
371   1  0.8200 36.616229 10.212460 36.773672
372   1  0.8200 39.028497 11.041158 45.383545
373   1  0.8200 27.464426 12.700643  2.334180
374   1  0.8200 29.876694 13.529341 10.944053
375   1  0.8200 32.288962 14.358039 19.553926
376   1  0.8200 34.701230 15.186737 28.163799
377   1  0.8200 37.113498 16.015435 36.773672
378   1  0.8200 39.525766 16.844133 45.383545
379   1  0.8200 27.961695 18.503618  2.334180
380   1  0.8200 30.373963 19.332316 10.944053
381   1  0.8200 32.786231 20.161014 19.553926
382   1  0.8200 35.198499 20.989712 28.163799
383   1  0.8200 37.610767 21.818410 36.773672
384   1  0.8200 40.023035 22.647108 45.383545
385   1  0.8200 28.458964 24.306593  2.334180
386   1  0.8200 30.871232 25.135291 10.944053
387   1  0.8200 33.283500 25.963989 19.553926
388   1  0.8200 35.695768 26.792687 28.163799
389   1  0.8200 38.108036 27.621385 36.773672
390   1  0.8200 40.520304 28.450083 45.383545
391   1  0.8200 28.956233 30.109568  2.334180
392   1  0.8200 31.368501 30.938266 10.944053
393   1  0.8200 33.780769 31.766964 19.553926
394   1  0.8200 36.193037 32.595662 28.163799
395   1  0.8200 38.605305 33.424360 36.773672
396   1  0.8200 41.017573 34.253058 45.383545
397   1  0.8200 32.151767  1.094693  2.334180
398   1  0.8200 34.564035  1.923391 10.944053
399   1  0.8200 36.976303  2.752089 19.553926
400   1  0.8200 39.388571  3.580787 28.163799
401   1  0.8200 41.800839  4.409485 36.773672
402   1  0.8200 44.213107  5.238183 45.383545
403   1  0.8200 32.649036  6.897668  2.334180
404   1  0.8200 35.061304  7.726366 10.944053
405   1  0.8200 37.473572  8.555064 19.553926
406   1  0.8200 39.885840  9.383762 28.163799
407   1  0.8200 42.298108 10.212460 36.773672
408   1  0.8200 44.710376 11.041158 45.383545
409   1  0.8200 33.146305 12.700643  2.334180
410   1  0.8200 35.558573 13.529341 10.944053
411   1  0.8200 37.970841 14.358039 19.553926
412   1  0.8200 40.383109 15.186737 28.163799
413   1  0.8200 42.795377 16.015435 36.773672
414   1  0.8200 45.207645 16.844133 45.383545
415   1  0.8200 33.643574 18.503618  2.334180
416   1  0.8200 36.055842 19.332316 10.944053
417   1  0.8200 38.468110 20.161014 19.553926
418   1  0.8200 40.880378 20.989712 28.163799
419   1  0.8200 43.292646 21.818410 36.773672
420   1  0.8200 45.704914 22.647108 45.383545
421   1  0.8200 34.140843 24.306593  2.334180
422   1  0.8200 36.553111 25.135291 10.944053
423   1  0.8200 38.965379 25.963989 19.553926
424   1  0.8200 41.377647 26.792687 28.163799
425   1  0.8200 43.789915 27.621385 36.773672
426   1  0.8200 46.202183 28.450083 45.383545
427   1  0.8200 34.638112 30.109568  2.334180
428   1  0.8200 37.050380 30.938266 10.944053
429   1  0.8200 39.462648 31.766964 19.553926
430   1  0.8200 41.874916 32.595662 28.163799
431   1  0.8200 44.287184 33.424360 36.773672
432   1  0.8200 46.699452 34.253058 45.383545
433   1  0.8200  4.884234  4.232233  0.155563
434   1  0.8200  7.296502  5.060931  8.765436
435   1  0.8200  9.708770  5.889629 17.375309
436   1  0.8200 12.121038  6.718327 25.985182
437   1  0.8200 14.533306  7.547025 34.595055
438   1  0.8200 16.945574  8.375723 43.204928
439   1  0.8200  5.381503 10.035208  0.155563
440   1  0.8200  7.793771 10.863906  8.765436
441   1  0.8200 10.206039 11.692604 17.375309
442   1  0.8200 12.618307 12.521302 25.985182
443   1  0.8200 15.030575 13.350000 34.595055
444   1  0.8200 17.442843 14.178698 43.204928
445   1  0.8200  5.878772 15.838183  0.155563
446   1  0.8200  8.291040 16.666881  8.765436
447   1  0.8200 10.703308 17.495579 17.375309
448   1  0.8200 13.115576 18.324277 25.985182
449   1  0.8200 15.527844 19.152975 34.595055
450   1  0.8200 17.940112 19.981673 43.204928
451   1  0.8200  6.376041 21.641158  0.155563
452   1  0.8200  8.788309 22.469856  8.765436
453   1  0.8200 11.200577 23.298554 17.375309
454   1  0.8200 13.612845 24.127252 25.985182
455   1  0.8200 16.025113 24.955950 34.595055
456   1  0.8200 18.437381 25.784648 43.204928
457   1  0.8200  6.873310 27.444133  0.155563
458   1  0.8200  9.285578 28.272831  8.765436
459   1  0.8200 11.697846 29.101529 17.375309
460   1  0.8200 14.110114 29.930227 25.985182
461   1  0.8200 16.522382 30.758925 34.595055
462   1  0.8200 18.934650 31.587623 43.204928
463   1  0.8200  7.370579 33.247108  0.155563
464   1  0.8200  9.782847 34.075806  8.765436
465   1  0.8200 12.195115 34.904504 17.375309
466   1  0.8200 14.607383 35.733202 25.985182
467   1  0.8200 17.019651 36.561900 34.595055
468   1  0.8200 19.431919 37.390598 43.204928
469   1  0.8200 10.566113  4.232233  0.155563
470   1  0.8200 12.978381  5.060931  8.765436
471   1  0.8200 15.390649  5.889629 17.375309
472   1  0.8200 17.802917  6.718327 25.985182
473   1  0.8200 20.215185  7.547025 34.595055
474   1  0.8200 22.627453  8.375723 43.204928
475   1  0.8200 11.063382 10.035208  0.155563
476   1  0.8200 13.475650 10.863906  8.765436
477   1  0.8200 15.887918 11.692604 17.375309
478   1  0.8200 18.300186 12.521302 25.985182
479   1  0.8200 20.712454 13.350000 34.595055
480   1  0.8200 23.124722 14.178698 43.204928
481   1  0.8200 11.560651 15.838183  0.155563
482   1  0.8200 13.972919 16.666881  8.765436
483   1  0.8200 16.385187 17.495579 17.375309
484   1  0.8200 18.797455 18.324277 25.985182
485   1  0.8200 21.209723 19.152975 34.595055
486   1  0.8200 23.621991 19.981673 43.204928
487   1  0.8200 12.057920 21.641158  0.155563
488   1  0.8200 14.470188 22.469856  8.765436
489   1  0.8200 16.882456 23.298554 17.375309
490   1  0.8200 19.294724 24.127252 25.985182
491   1  0.8200 21.706992 24.955950 34.595055
492   1  0.8200 24.119260 25.784648 43.204928
493   1  0.8200 12.555189 27.444133  0.155563
494   1  0.8200 14.967457 28.272831  8.765436
495   1  0.8200 17.379725 29.101529 17.375309
496   1  0.8200 19.791993 29.930227 25.985182
497   1  0.8200 22.204261 30.758925 34.595055
498   1  0.8200 24.616529 31.587623 43.204928
499   1  0.8200 13.052458 33.247108  0.155563
500   1  0.8200 15.464726 34.075806  8.765436
501   1  0.8200 17.876994 34.904504 17.375309
502   1  0.8200 20.289262 35.733202 25.985182
503   1  0.8200 22.701530 36.561900 34.595055
504   1  0.8200 25.113798 37.390598 43.204928
505   1  0.8200 16.247992  4.232233  0.155563
506   1  0.8200 18.660260  5.060931  8.765436
507   1  0.8200 21.072528  5.889629 17.375309
508   1  0.8200 23.484796  6.718327 25.985182
509   1  0.8200 25.897064  7.547025 34.595055
510   1  0.8200 28.309332  8.375723 43.204928
511   1  0.8200 16.745261 10.035208  0.155563
512   1  0.8200 19.157529 10.863906  8.765436
513   1  0.8200 21.569797 11.692604 17.375309
514   1  0.8200 23.982065 12.521302 25.985182
515   1  0.8200 26.394333 13.350000 34.595055
516   1  0.8200 28.806601 14.178698 43.204928
517   1  0.8200 17.242530 15.838183  0.155563
518   1  0.8200 19.654798 16.666881  8.765436
519   1  0.8200 22.067066 17.495579 17.375309
520   1  0.8200 24.479334 18.324277 25.985182
521   1  0.8200 26.891602 19.152975 34.595055
522   1  0.8200 29.303870 19.981673 43.204928
523   1  0.8200 17.739799 21.641158  0.155563
524   1  0.8200 20.152067 22.469856  8.765436
525   1  0.8200 22.564335 23.298554 17.375309
526   1  0.8200 24.976603 24.127252 25.985182
527   1  0.8200 27.388871 24.955950 34.595055
528   1  0.8200 29.801139 25.784648 43.204928
529   1  0.8200 18.237068 27.444133  0.155563
530   1  0.8200 20.649336 28.272831  8.765436
531   1  0.8200 23.061604 29.101529 17.375309
532   1  0.8200 25.473872 29.930227 25.985182
533   1  0.8200 27.886140 30.758925 34.595055
534   1  0.8200 30.298408 31.587623 43.204928
535   1  0.8200 18.734337 33.247108  0.155563
536   1  0.8200 21.146605 34.075806  8.765436
537   1  0.8200 23.558873 34.904504 17.375309
538   1  0.8200 25.971141 35.733202 25.985182
539   1  0.8200 28.383409 36.561900 34.595055
540   1  0.8200 30.795677 37.390598 43.204928
541   1  0.8200 21.929871  4.232233  0.155563
542   1  0.8200 24.342139  5.060931  8.765436
543   1  0.8200 26.754407  5.889629 17.375309
544   1  0.8200 29.166675  6.718327 25.985182
545   1  0.8200 31.578943  7.547025 34.595055
546   1  0.8200 33.991211  8.375723 43.204928
547   1  0.8200 22.427140 10.035208  0.155563
548   1  0.8200 24.839408 10.863906  8.765436
549   1  0.8200 27.251676 11.692604 17.375309
550   1  0.8200 29.663944 12.521302 25.985182
551   1  0.8200 32.076212 13.350000 34.595055
552   1  0.8200 34.488480 14.178698 43.204928
553   1  0.8200 22.924409 15.838183  0.155563
554   1  0.8200 25.336677 16.666881  8.765436
555   1  0.8200 27.748945 17.495579 17.375309
556   1  0.8200 30.161213 18.324277 25.985182
557   1  0.8200 32.573481 19.152975 34.595055
558   1  0.8200 34.985749 19.981673 43.204928
559   1  0.8200 23.421678 21.641158  0.155563
560   1  0.8200 25.833946 22.469856  8.765436
561   1  0.8200 28.246214 23.298554 17.375309
562   1  0.8200 30.658482 24.127252 25.985182
563   1  0.8200 33.070750 24.955950 34.595055
564   1  0.8200 35.483018 25.784648 43.204928
565   1  0.8200 23.918947 27.444133  0.155563
566   1  0.8200 26.331215 28.272831  8.765436
567   1  0.8200 28.743483 29.101529 17.375309
568   1  0.8200 31.155751 29.930227 25.985182
569   1  0.8200 33.568019 30.758925 34.595055
570   1  0.8200 35.980287 31.587623 43.204928
571   1  0.8200 24.416216 33.247108  0.155563
572   1  0.8200 26.828484 34.075806  8.765436
573   1  0.8200 29.240752 34.904504 17.375309
574   1  0.8200 31.653020 35.733202 25.985182
575   1  0.8200 34.065288 36.561900 34.595055
576   1  0.8200 36.477556 37.390598 43.204928
577   1  0.8200 27.611750  4.232233  0.155563
578   1  0.8200 30.024018  5.060931  8.765436
579   1  0.8200 32.436286  5.889629 17.375309
580   1  0.8200 34.848554  6.718327 25.985182
581   1  0.8200 37.260822  7.547025 34.595055
582   1  0.8200 39.673090  8.375723 43.204928
583   1  0.8200 28.109019 10.035208  0.155563
584   1  0.8200 30.521287 10.863906  8.765436
585   1  0.8200 32.933555 11.692604 17.375309
586   1  0.8200 35.345823 12.521302 25.985182
587   1  0.8200 37.758091 13.350000 34.595055
588   1  0.8200 40.170359 14.178698 43.204928
589   1  0.8200 28.606288 15.838183  0.155563
590   1  0.8200 31.018556 16.666881  8.765436
591   1  0.8200 33.430824 17.495579 17.375309
592   1  0.8200 35.843092 18.324277 25.985182
593   1  0.8200 38.255360 19.152975 34.595055
594   1  0.8200 40.667628 19.981673 43.204928
595   1  0.8200 29.103557 21.641158  0.155563
596   1  0.8200 31.515825 22.469856  8.765436
597   1  0.8200 33.928093 23.298554 17.375309
598   1  0.8200 36.340361 24.127252 25.985182
599   1  0.8200 38.752629 24.955950 34.595055
600   1  0.8200 41.164897 25.784648 43.204928
601   1  0.8200 29.600826 27.444133  0.155563
602   1  0.8200 32.013094 28.272831  8.765436
603   1  0.8200 34.425362 29.101529 17.375309
604   1  0.8200 36.837630 29.930227 25.985182
605   1  0.8200 39.249898 30.758925 34.595055
606   1  0.8200 41.662166 31.587623 43.204928
607   1  0.8200 30.098095 33.247108  0.155563
608   1  0.8200 32.510363 34.075806  8.765436
609   1  0.8200 34.922631 34.904504 17.375309
610   1  0.8200 37.334899 35.733202 25.985182
611   1  0.8200 39.747167 36.561900 34.595055
612   1  0.8200 42.159435 37.390598 43.204928
613   1  0.8200 33.293629  4.232233  0.155563
614   1  0.8200 35.705897  5.060931  8.765436
615   1  0.8200 38.118165  5.889629 17.375309
616   1  0.8200 40.530433  6.718327 25.985182
617   1  0.8200 42.942701  7.547025 34.595055
618   1  0.8200 45.354969  8.375723 43.204928
619   1  0.8200 33.790898 10.035208  0.155563
620   1  0.8200 36.203166 10.863906  8.765436
621   1  0.8200 38.615434 11.692604 17.375309
622   1  0.8200 41.027702 12.521302 25.985182
623   1  0.8200 43.439970 13.350000 34.595055
624   1  0.8200 45.852238 14.178698 43.204928
625   1  0.8200 34.288167 15.838183  0.155563
626   1  0.8200 36.700435 16.666881  8.765436
627   1  0.8200 39.112703 17.495579 17.375309
628   1  0.8200 41.524971 18.324277 25.985182
629   1  0.8200 43.937239 19.152975 34.595055
630   1  0.8200 46.349507 19.981673 43.204928
631   1  0.8200 34.785436 21.641158  0.155563
632   1  0.8200 37.197704 22.469856  8.765436
633   1  0.8200 39.609972 23.298554 17.375309
634   1  0.8200 42.022240 24.127252 25.985182
635   1  0.8200 44.434508 24.955950 34.595055
636   1  0.8200 46.846776 25.784648 43.204928
637   1  0.8200 35.282705 27.444133  0.155563
638   1  0.8200 37.694973 28.272831  8.765436
639   1  0.8200 40.107241 29.101529 17.375309
640   1  0.8200 42.519509 29.930227 25.985182
641   1  0.8200 44.931777 30.758925 34.595055
642   1  0.8200 47.344045 31.587623 43.204928
643   1  0.8200 35.779974 33.247108  0.155563
644   1  0.8200 38.192242 34.075806  8.765436
645   1  0.8200 40.604510 34.904504 17.375309
646   1  0.8200 43.016778 35.733202 25.985182