Generated by pymatgen.io.lammps.data.LammpsData

3024  atoms

   4  atom types

0.000000 26.357091  xlo xhi
0.000000 32.526849  ylo yhi
0.000000 39.225468  zlo zhi
-0.042147 -0.403026 -0.490371  xy xz yz

Masses

1   6.941000
2  10.811000
3  30.973762
4  15.999400

Atoms

1     1  0.5250  7.683720  7.052352  3.734591
2     1  0.5250  7.549378  6.888895 16.809747
3     1  0.5250  7.415036  6.725438 29.884903
4     1  0.5250  7.669671 17.894635  3.734591
5     1  0.5250  7.535329 17.731178 16.809747
6     1  0.5250  7.400987 17.567721 29.884903
7     1  0.5250  7.655622 28.736918  3.734591
8     1  0.5250  7.521280 28.573461 16.809747
9     1  0.5250  7.386938 28.410004 29.884903
10    1  0.5250 16.469417  7.052352  3.734591
11    1  0.5250 16.335075  6.888895 16.809747
12    1  0.5250 16.200733  6.725438 29.884903
13    1  0.5250 16.455368 17.894635  3.734591
14    1  0.5250 16.321026 17.731178 16.809747
15    1  0.5250 16.186684 17.567721 29.884903
16    1  0.5250 16.441319 28.736918  3.734591
17    1  0.5250 16.306977 28.573461 16.809747
18    1  0.5250 16.172635 28.410004 29.884903
19    1  0.5250 25.255114  7.052352  3.734591
20    1  0.5250 25.120772  6.888895 16.809747
21    1  0.5250 24.986430  6.725438 29.884903
22    1  0.5250 25.241065 17.894635  3.734591
23    1  0.5250 25.106723 17.731178 16.809747
24    1  0.5250 24.972381 17.567721 29.884903
25    1  0.5250 25.227016 28.736918  3.734591
26    1  0.5250 25.092674 28.573461 16.809747
27    1  0.5250 24.958332 28.410004 29.884903
28    1  0.5250  0.953586  3.626474  9.340565
29    1  0.5250  0.819244  3.463017 22.415721
30    1  0.5250  0.684902  3.299560 35.490877
31    1  0.5250  0.939537 14.468757  9.340565
32    1  0.5250  0.805195 14.305300 22.415721
33    1  0.5250  0.670853 14.141843 35.490877
34    1  0.5250  0.925488 25.311040  9.340565
35    1  0.5250  0.791146 25.147583 22.415721
36    1  0.5250  0.656804 24.984126 35.490877
37    1  0.5250  9.739283  3.626474  9.340565
38    1  0.5250  9.604941  3.463017 22.415721
39    1  0.5250  9.470599  3.299560 35.490877
40    1  0.5250  9.725234 14.468757  9.340565
41    1  0.5250  9.590892 14.305300 22.415721
42    1  0.5250  9.456550 14.141843 35.490877
43    1  0.5250  9.711185 25.311040  9.340565
44    1  0.5250  9.576843 25.147583 22.415721
45    1  0.5250  9.442501 24.984126 35.490877
46    1  0.5250 18.524980  3.626474  9.340565
47    1  0.5250 18.390638  3.463017 22.415721
48    1  0.5250 18.256296  3.299560 35.490877
49    1  0.5250 18.510931 14.468757  9.340565
50    1  0.5250 18.376589 14.305300 22.415721
51    1  0.5250 18.242247 14.141843 35.490877
52    1  0.5250 18.496882 25.311040  9.340565
53    1  0.5250 18.362540 25.147583 22.415721
54    1  0.5250 18.228198 24.984126 35.490877
55    1  0.5250  7.496831  2.347939  9.629539
56    1  0.5250  7.362489  2.184482 22.704695
57    1  0.5250  7.228147  2.021025 35.779851
58    1  0.5250  7.482782 13.190222  9.629539
59    1  0.5250  7.348440 13.026765 22.704695
60    1  0.5250  7.214098 12.863308 35.779851
61    1  0.5250  7.468733 24.032505  9.629539
62    1  0.5250  7.334391 23.869048 22.704695
63    1  0.5250  7.200049 23.705591 35.779851
64    1  0.5250 16.282528  2.347939  9.629539
65    1  0.5250 16.148186  2.184482 22.704695
66    1  0.5250 16.013844  2.021025 35.779851
67    1  0.5250 16.268479 13.190222  9.629539
68    1  0.5250 16.134137 13.026765 22.704695
69    1  0.5250 15.999795 12.863308 35.779851
70    1  0.5250 16.254430 24.032505  9.629539
71    1  0.5250 16.120088 23.869048 22.704695
72    1  0.5250 15.985746 23.705591 35.779851
73    1  0.5250 25.068225  2.347939  9.629539
74    1  0.5250 24.933883  2.184482 22.704695
75    1  0.5250 24.799541  2.021025 35.779851
76    1  0.5250 25.054176 13.190222  9.629539
77    1  0.5250 24.919834 13.026765 22.704695
78    1  0.5250 24.785492 12.863308 35.779851
79    1  0.5250 25.040127 24.032505  9.629539
80    1  0.5250 24.905785 23.869048 22.704695
81    1  0.5250 24.771443 23.705591 35.779851
82    1  0.5250  1.140475  8.330887  3.445617
83    1  0.5250  1.006133  8.167430 16.520773
84    1  0.5250  0.871791  8.003973 29.595929
85    1  0.5250  1.126426 19.173170  3.445617
86    1  0.5250  0.992084 19.009713 16.520773
87    1  0.5250  0.857742 18.846256 29.595929
88    1  0.5250  1.112377 30.015453  3.445617
89    1  0.5250  0.978035 29.851996 16.520773
90    1  0.5250  0.843693 29.688539 29.595929
91    1  0.5250  9.926172  8.330887  3.445617
92    1  0.5250  9.791830  8.167430 16.520773
93    1  0.5250  9.657488  8.003973 29.595929
94    1  0.5250  9.912123 19.173170  3.445617
95    1  0.5250  9.777781 19.009713 16.520773
96    1  0.5250  9.643439 18.846256 29.595929
97    1  0.5250  9.898074 30.015453  3.445617
98    1  0.5250  9.763732 29.851996 16.520773
99    1  0.5250  9.629390 29.688539 29.595929
100   1  0.5250 18.711869  8.330887  3.445617
101   1  0.5250 18.577527  8.167430 16.520773
102   1  0.5250 18.443185  8.003973 29.595929
103   1  0.5250 18.697820 19.173170  3.445617
104   1  0.5250 18.563478 19.009713 16.520773
105   1  0.5250 18.429136 18.846256 29.595929
106   1  0.5250 18.683771 30.015453  3.445617
107   1  0.5250 18.549429 29.851996 16.520773
108   1  0.5250 18.415087 29.688539 29.595929
109   1  0.5250  6.732503  7.674509 12.567474
110   1  0.5250  6.598161  7.511052 25.642630
111   1  0.5250  6.463819  7.347595 38.717786
112   1  0.5250  6.718454 18.516792 12.567474
113   1  0.5250  6.584112 18.353335 25.642630
114   1  0.5250  6.449770 18.189878 38.717786
115   1  0.5250  6.704405 29.359075 12.567474
116   1  0.5250  6.570063 29.195618 25.642630
117   1  0.5250  6.435721 29.032161 38.717786
118   1  0.5250 15.518200  7.674509 12.567474
119   1  0.5250 15.383858  7.511052 25.642630
120   1  0.5250 15.249516  7.347595 38.717786
121   1  0.5250 15.504151 18.516792 12.567474
122   1  0.5250 15.369809 18.353335 25.642630
123   1  0.5250 15.235467 18.189878 38.717786
124   1  0.5250 15.490102 29.359075 12.567474
125   1  0.5250 15.355760 29.195618 25.642630
126   1  0.5250 15.221418 29.032161 38.717786
127   1  0.5250 24.303897  7.674509 12.567474
128   1  0.5250 24.169555  7.511052 25.642630
129   1  0.5250 24.035213  7.347595 38.717786
130   1  0.5250 24.289848 18.516792 12.567474
131   1  0.5250 24.155506 18.353335 25.642630
132   1  0.5250 24.021164 18.189878 38.717786
133   1  0.5250 24.275799 29.359075 12.567474
134   1  0.5250 24.141457 29.195618 25.642630
135   1  0.5250 24.007115 29.032161 38.717786
136   1  0.5250  1.904803  3.004317  0.507682
137   1  0.5250  1.770461  2.840860 13.582838
138   1  0.5250  1.636119  2.677403 26.657994
139   1  0.5250  1.890754 13.846600  0.507682
140   1  0.5250  1.756412 13.683143 13.582838
141   1  0.5250  1.622070 13.519686 26.657994
142   1  0.5250  1.876705 24.688883  0.507682
143   1  0.5250  1.742363 24.525426 13.582838
144   1  0.5250  1.608021 24.361969 26.657994
145   1  0.5250 10.690500  3.004317  0.507682
146   1  0.5250 10.556158  2.840860 13.582838
147   1  0.5250 10.421816  2.677403 26.657994
148   1  0.5250 10.676451 13.846600  0.507682
149   1  0.5250 10.542109 13.683143 13.582838
150   1  0.5250 10.407767 13.519686 26.657994
151   1  0.5250 10.662402 24.688883  0.507682
152   1  0.5250 10.528060 24.525426 13.582838
153   1  0.5250 10.393718 24.361969 26.657994
154   1  0.5250 19.476197  3.004317  0.507682
155   1  0.5250 19.341855  2.840860 13.582838
156   1  0.5250 19.207513  2.677403 26.657994
157   1  0.5250 19.462148 13.846600  0.507682
158   1  0.5250 19.327806 13.683143 13.582838
159   1  0.5250 19.193464 13.519686 26.657994
160   1  0.5250 19.448099 24.688883  0.507682
161   1  0.5250 19.313757 24.525426 13.582838
162   1  0.5250 19.179415 24.361969 26.657994
163   1  0.5250  6.446231  4.835544  8.773129
164   1  0.5250  6.311889  4.672087 21.848285
165   1  0.5250  6.177547  4.508630 34.923441
166   1  0.5250  6.432182 15.677827  8.773129
167   1  0.5250  6.297840 15.514370 21.848285
168   1  0.5250  6.163498 15.350913 34.923441
169   1  0.5250  6.418133 26.520110  8.773129
170   1  0.5250  6.283791 26.356653 21.848285
171   1  0.5250  6.149449 26.193196 34.923441
172   1  0.5250 15.231928  4.835544  8.773129
173   1  0.5250 15.097586  4.672087 21.848285
174   1  0.5250 14.963244  4.508630 34.923441
175   1  0.5250 15.217879 15.677827  8.773129
176   1  0.5250 15.083537 15.514370 21.848285
177   1  0.5250 14.949195 15.350913 34.923441
178   1  0.5250 15.203830 26.520110  8.773129
179   1  0.5250 15.069488 26.356653 21.848285
180   1  0.5250 14.935146 26.193196 34.923441
181   1  0.5250 24.017625  4.835544  8.773129
182   1  0.5250 23.883283  4.672087 21.848285
183   1  0.5250 23.748941  4.508630 34.923441
184   1  0.5250 24.003576 15.677827  8.773129
185   1  0.5250 23.869234 15.514370 21.848285
186   1  0.5250 23.734892 15.350913 34.923441
187   1  0.5250 23.989527 26.520110  8.773129
188   1  0.5250 23.855185 26.356653 21.848285
189   1  0.5250 23.720843 26.193196 34.923441
190   1  0.5250  2.191075  5.843282  4.302027
191   1  0.5250  2.056733  5.679825 17.377183
192   1  0.5250  1.922391  5.516368 30.452339
193   1  0.5250  2.177026 16.685565  4.302027
194   1  0.5250  2.042684 16.522108 17.377183
195   1  0.5250  1.908342 16.358651 30.452339
196   1  0.5250  2.162977 27.527848  4.302027
197   1  0.5250  2.028635 27.364391 17.377183
198   1  0.5250  1.894293 27.200934 30.452339
199   1  0.5250 10.976772  5.843282  4.302027
200   1  0.5250 10.842430  5.679825 17.377183
201   1  0.5250 10.708088  5.516368 30.452339
202   1  0.5250 10.962723 16.685565  4.302027
203   1  0.5250 10.828381 16.522108 17.377183
204   1  0.5250 10.694039 16.358651 30.452339
205   1  0.5250 10.948674 27.527848  4.302027
206   1  0.5250 10.814332 27.364391 17.377183
207   1  0.5250 10.679990 27.200934 30.452339
208   1  0.5250 19.762469  5.843282  4.302027
209   1  0.5250 19.628127  5.679825 17.377183
210   1  0.5250 19.493785  5.516368 30.452339
211   1  0.5250 19.748420 16.685565  4.302027
212   1  0.5250 19.614078 16.522108 17.377183
213   1  0.5250 19.479736 16.358651 30.452339
214   1  0.5250 19.734371 27.527848  4.302027
215   1  0.5250 19.600029 27.364391 17.377183
216   1  0.5250 19.465687 27.200934 30.452339
217   1  0.5250  6.466447 10.167586  2.257792
218   1  0.5250  6.332105 10.004129 15.332948
219   1  0.5250  6.197763  9.840672 28.408104
220   1  0.5250  6.452398 21.009869  2.257792
221   1  0.5250  6.318056 20.846412 15.332948
222   1  0.5250  6.183714 20.682955 28.408104
223   1  0.5250  6.438349 31.852152  2.257792
224   1  0.5250  6.304007 31.688695 15.332948
225   1  0.5250  6.169665 31.525238 28.408104
226   1  0.5250 15.252144 10.167586  2.257792
227   1  0.5250 15.117802 10.004129 15.332948
228   1  0.5250 14.983460  9.840672 28.408104
229   1  0.5250 15.238095 21.009869  2.257792
230   1  0.5250 15.103753 20.846412 15.332948
231   1  0.5250 14.969411 20.682955 28.408104
232   1  0.5250 15.224046 31.852152  2.257792
233   1  0.5250 15.089704 31.688695 15.332948
234   1  0.5250 14.955362 31.525238 28.408104
235   1  0.5250 24.037841 10.167586  2.257792
236   1  0.5250 23.903499 10.004129 15.332948
237   1  0.5250 23.769157  9.840672 28.408104
238   1  0.5250 24.023792 21.009869  2.257792
239   1  0.5250 23.889450 20.846412 15.332948
240   1  0.5250 23.755108 20.682955 28.408104
241   1  0.5250 24.009743 31.852152  2.257792
242   1  0.5250 23.875401 31.688695 15.332948
243   1  0.5250 23.741059 31.525238 28.408104
244   1  0.5250  2.170859  0.511240 10.817364
245   1  0.5250  2.036517  0.347783 23.892520
246   1  0.5250  1.902175  0.184326 36.967676
247   1  0.5250  2.156810 11.353523 10.817364
248   1  0.5250  2.022468 11.190066 23.892520
249   1  0.5250  1.888126 11.026609 36.967676
250   1  0.5250  2.142761 22.195806 10.817364
251   1  0.5250  2.008419 22.032349 23.892520
252   1  0.5250  1.874077 21.868892 36.967676
253   1  0.5250 10.956556  0.511240 10.817364
254   1  0.5250 10.822214  0.347783 23.892520
255   1  0.5250 10.687872  0.184326 36.967676
256   1  0.5250 10.942507 11.353523 10.817364
257   1  0.5250 10.808165 11.190066 23.892520
258   1  0.5250 10.673823 11.026609 36.967676
259   1  0.5250 10.928458 22.195806 10.817364
260   1  0.5250 10.794116 22.032349 23.892520
261   1  0.5250 10.659774 21.868892 36.967676
262   1  0.5250 19.742253  0.511240 10.817364
263   1  0.5250 19.607911  0.347783 23.892520
264   1  0.5250 19.473569  0.184326 36.967676
265   1  0.5250 19.728204 11.353523 10.817364
266   1  0.5250 19.593862 11.190066 23.892520
267   1  0.5250 19.459520 11.026609 36.967676
268   1  0.5250 19.714155 22.195806 10.817364
269   1  0.5250 19.579813 22.032349 23.892520
270   1  0.5250 19.445471 21.868892 36.967676
271   1  0.5250  5.453949  4.803286 12.950981
272   1  0.5250  5.319607  4.639829 26.026137
273   1  0.5250  5.185265  4.476372 39.101293
274   1  0.5250  5.439900 15.645569 12.950981
275   1  0.5250  5.305558 15.482112 26.026137
276   1  0.5250  5.171216 15.318655 39.101293
277   1  0.5250  5.425851 26.487852 12.950981
278   1  0.5250  5.291509 26.324395 26.026137
279   1  0.5250  5.157167 26.160938 39.101293
280   1  0.5250 14.239646  4.803286 12.950981
281   1  0.5250 14.105304  4.639829 26.026137
282   1  0.5250 13.970962  4.476372 39.101293
283   1  0.5250 14.225597 15.645569 12.950981
284   1  0.5250 14.091255 15.482112 26.026137
285   1  0.5250 13.956913 15.318655 39.101293
286   1  0.5250 14.211548 26.487852 12.950981
287   1  0.5250 14.077206 26.324395 26.026137
288   1  0.5250 13.942864 26.160938 39.101293
289   1  0.5250 23.025343  4.803286 12.950981
290   1  0.5250 22.891001  4.639829 26.026137
291   1  0.5250 22.756659  4.476372 39.101293
292   1  0.5250 23.011294 15.645569 12.950981
293   1  0.5250 22.876952 15.482112 26.026137
294   1  0.5250 22.742610 15.318655 39.101293
295   1  0.5250 22.997245 26.487852 12.950981
296   1  0.5250 22.862903 26.324395 26.026137
297   1  0.5250 22.728561 26.160938 39.101293
298   1  0.5250  3.183357  5.875540  0.124175
299   1  0.5250  3.049015  5.712083 13.199331
300   1  0.5250  2.914673  5.548626 26.274487
301   1  0.5250  3.169308 16.717823  0.124175
302   1  0.5250  3.034966 16.554366 13.199331
303   1  0.5250  2.900624 16.390909 26.274487
304   1  0.5250  3.155259 27.560106  0.124175
305   1  0.5250  3.020917 27.396649 13.199331
306   1  0.5250  2.886575 27.233192 26.274487
307   1  0.5250 11.969054  5.875540  0.124175
308   1  0.5250 11.834712  5.712083 13.199331
309   1  0.5250 11.700370  5.548626 26.274487
310   1  0.5250 11.955005 16.717823  0.124175
311   1  0.5250 11.820663 16.554366 13.199331
312   1  0.5250 11.686321 16.390909 26.274487
313   1  0.5250 11.940956 27.560106  0.124175
314   1  0.5250 11.806614 27.396649 13.199331
315   1  0.5250 11.672272 27.233192 26.274487
316   1  0.5250 20.754751  5.875540  0.124175
317   1  0.5250 20.620409  5.712083 13.199331
318   1  0.5250 20.486067  5.548626 26.274487
319   1  0.5250 20.740702 16.717823  0.124175
320   1  0.5250 20.606360 16.554366 13.199331
321   1  0.5250 20.472018 16.390909 26.274487
322   1  0.5250 20.726653 27.560106  0.124175
323   1  0.5250 20.592311 27.396649 13.199331
324   1  0.5250 20.457969 27.233192 26.274487
325   1  0.5250  4.866320 10.293722  7.656092
326   1  0.5250  4.731978 10.130265 20.731248
327   1  0.5250  4.597636  9.966808 33.806404
328   1  0.5250  4.852271 21.136005  7.656092
329   1  0.5250  4.717929 20.972548 20.731248
330   1  0.5250  4.583587 20.809091 33.806404
331   1  0.5250  4.838222 31.978288  7.656092
332   1  0.5250  4.703880 31.814831 20.731248
333   1  0.5250  4.569538 31.651374 33.806404
334   1  0.5250 13.652017 10.293722  7.656092
335   1  0.5250 13.517675 10.130265 20.731248
336   1  0.5250 13.383333  9.966808 33.806404
337   1  0.5250 13.637968 21.136005  7.656092
338   1  0.5250 13.503626 20.972548 20.731248
339   1  0.5250 13.369284 20.809091 33.806404
340   1  0.5250 13.623919 31.978288  7.656092
341   1  0.5250 13.489577 31.814831 20.731248
342   1  0.5250 13.355235 31.651374 33.806404
343   1  0.5250 22.437714 10.293722  7.656092
344   1  0.5250 22.303372 10.130265 20.731248
345   1  0.5250 22.169030  9.966808 33.806404
346   1  0.5250 22.423665 21.136005  7.656092
347   1  0.5250 22.289323 20.972548 20.731248
348   1  0.5250 22.154981 20.809091 33.806404
349   1  0.5250 22.409616 31.978288  7.656092
350   1  0.5250 22.275274 31.814831 20.731248
351   1  0.5250 22.140932 31.651374 33.806404
352   1  0.5250  3.770986  0.385104  5.419064
353   1  0.5250  3.636644  0.221647 18.494220
354   1  0.5250  3.502302  0.058190 31.569376
355   1  0.5250  3.756937 11.227387  5.419064
356   1  0.5250  3.622595 11.063930 18.494220
357   1  0.5250  3.488253 10.900473 31.569376
358   1  0.5250  3.742888 22.069670  5.419064
359   1  0.5250  3.608546 21.906213 18.494220
360   1  0.5250  3.474204 21.742756 31.569376
361   1  0.5250 12.556683  0.385104  5.419064
362   1  0.5250 12.422341  0.221647 18.494220
363   1  0.5250 12.287999  0.058190 31.569376
364   1  0.5250 12.542634 11.227387  5.419064
365   1  0.5250 12.408292 11.063930 18.494220
366   1  0.5250 12.273950 10.900473 31.569376
367   1  0.5250 12.528585 22.069670  5.419064
368   1  0.5250 12.394243 21.906213 18.494220
369   1  0.5250 12.259901 21.742756 31.569376
370   1  0.5250 21.342380  0.385104  5.419064
371   1  0.5250 21.208038  0.221647 18.494220
372   1  0.5250 21.073696  0.058190 31.569376
373   1  0.5250 21.328331 11.227387  5.419064
374   1  0.5250 21.193989 11.063930 18.494220
375   1  0.5250 21.059647 10.900473 31.569376
376   1  0.5250 21.314282 22.069670  5.419064
377   1  0.5250 21.179940 21.906213 18.494220
378   1  0.5250 21.045598 21.742756 31.569376
379   1  0.5250  1.991186  8.902847  7.895851
380   1  0.5250  1.856844  8.739390 20.971007
381   1  0.5250  1.722502  8.575933 34.046163
382   1  0.5250  1.977137 19.745130  7.895851
383   1  0.5250  1.842795 19.581673 20.971007
384   1  0.5250  1.708453 19.418216 34.046163
385   1  0.5250  1.963088 30.587413  7.895851
386   1  0.5250  1.828746 30.423956 20.971007
387   1  0.5250  1.694404 30.260499 34.046163
388   1  0.5250 10.776883  8.902847  7.895851
389   1  0.5250 10.642541  8.739390 20.971007
390   1  0.5250 10.508199  8.575933 34.046163
391   1  0.5250 10.762834 19.745130  7.895851
392   1  0.5250 10.628492 19.581673 20.971007
393   1  0.5250 10.494150 19.418216 34.046163
394   1  0.5250 10.748785 30.587413  7.895851
395   1  0.5250 10.614443 30.423956 20.971007
396   1  0.5250 10.480101 30.260499 34.046163
397   1  0.5250 19.562580  8.902847  7.895851
398   1  0.5250 19.428238  8.739390 20.971007
399   1  0.5250 19.293896  8.575933 34.046163
400   1  0.5250 19.548531 19.745130  7.895851
401   1  0.5250 19.414189 19.581673 20.971007
402   1  0.5250 19.279847 19.418216 34.046163
403   1  0.5250 19.534482 30.587413  7.895851
404   1  0.5250 19.400140 30.423956 20.971007
405   1  0.5250 19.265798 30.260499 34.046163
406   1  0.5250  6.646120  1.775979  5.179305
407   1  0.5250  6.511778  1.612522 18.254461
408   1  0.5250  6.377436  1.449065 31.329617
409   1  0.5250  6.632071 12.618262  5.179305
410   1  0.5250  6.497729 12.454805 18.254461
411   1  0.5250  6.363387 12.291348 31.329617
412   1  0.5250  6.618022 23.460545  5.179305
413   1  0.5250  6.483680 23.297088 18.254461
414   1  0.5250  6.349338 23.133631 31.329617
415   1  0.5250 15.431817  1.775979  5.179305
416   1  0.5250 15.297475  1.612522 18.254461
417   1  0.5250 15.163133  1.449065 31.329617
418   1  0.5250 15.417768 12.618262  5.179305
419   1  0.5250 15.283426 12.454805 18.254461
420   1  0.5250 15.149084 12.291348 31.329617
421   1  0.5250 15.403719 23.460545  5.179305
422   1  0.5250 15.269377 23.297088 18.254461
423   1  0.5250 15.135035 23.133631 31.329617
424   1  0.5250 24.217514  1.775979  5.179305
425   1  0.5250 24.083172  1.612522 18.254461
426   1  0.5250 23.948830  1.449065 31.329617
427   1  0.5250 24.203465 12.618262  5.179305
428   1  0.5250 24.069123 12.454805 18.254461
429   1  0.5250 23.934781 12.291348 31.329617
430   1  0.5250 24.189416 23.460545  5.179305
431   1  0.5250 24.055074 23.297088 18.254461
432   1  0.5250 23.920732 23.133631 31.329617
433   2 -0.0000  8.269577  7.200246  7.927467
434   2 -0.0000  8.135235  7.036789 21.002623
435   2 -0.0000  8.000893  6.873332 34.077779
436   2 -0.0000  8.255528 18.042529  7.927467
437   2 -0.0000  8.121186 17.879072 21.002623
438   2 -0.0000  7.986844 17.715615 34.077779
439   2 -0.0000  8.241479 28.884812  7.927467
440   2 -0.0000  8.107137 28.721355 21.002623
441   2 -0.0000  7.972795 28.557898 34.077779
442   2 -0.0000 17.055274  7.200246  7.927467
443   2 -0.0000 16.920932  7.036789 21.002623
444   2 -0.0000 16.786590  6.873332 34.077779
445   2 -0.0000 17.041225 18.042529  7.927467
446   2 -0.0000 16.906883 17.879072 21.002623
447   2 -0.0000 16.772541 17.715615 34.077779
448   2 -0.0000 17.027176 28.884812  7.927467
449   2 -0.0000 16.892834 28.721355 21.002623
450   2 -0.0000 16.758492 28.557898 34.077779
451   2 -0.0000 25.840971  7.200246  7.927467
452   2 -0.0000 25.706629  7.036789 21.002623
453   2 -0.0000 25.572287  6.873332 34.077779
454   2 -0.0000 25.826922 18.042529  7.927467
455   2 -0.0000 25.692580 17.879072 21.002623
456   2 -0.0000 25.558238 17.715615 34.077779
457   2 -0.0000 25.812873 28.884812  7.927467
458   2 -0.0000 25.678531 28.721355 21.002623
459   2 -0.0000 25.544189 28.557898 34.077779
460   2 -0.0000  0.367729  3.478580  5.147689
461   2 -0.0000  0.233387  3.315123 18.222845
462   2 -0.0000  0.099045  3.151666 31.298001
463   2 -0.0000  0.353680 14.320863  5.147689
464   2 -0.0000  0.219338 14.157406 18.222845
465   2 -0.0000  0.084996 13.993949 31.298001
466   2 -0.0000  0.339631 25.163146  5.147689
467   2 -0.0000  0.205289 24.999689 18.222845
468   2 -0.0000  0.070947 24.836232 31.298001
469   2 -0.0000  9.153426  3.478580  5.147689
470   2 -0.0000  9.019084  3.315123 18.222845
471   2 -0.0000  8.884742  3.151666 31.298001
472   2 -0.0000  9.139377 14.320863  5.147689
473   2 -0.0000  9.005035 14.157406 18.222845
474   2 -0.0000  8.870693 13.993949 31.298001
475   2 -0.0000  9.125328 25.163146  5.147689
476   2 -0.0000  8.990986 24.999689 18.222845
477   2 -0.0000  8.856644 24.836232 31.298001
478   2 -0.0000 17.939123  3.478580  5.147689
479   2 -0.0000 17.804781  3.315123 18.222845
480   2 -0.0000 17.670439  3.151666 31.298001
481   2 -0.0000 17.925074 14.320863  5.147689
482   2 -0.0000 17.790732 14.157406 18.222845
483   2 -0.0000 17.656390 13.993949 31.298001
484   2 -0.0000 17.911025 25.163146  5.147689
485   2 -0.0000 17.776683 24.999689 18.222845
486   2 -0.0000 17.642341 24.836232 31.298001
487   2 -0.0000  7.650636  9.552138  7.505558
488   2 -0.0000  7.516294  9.388681 20.580714
489   2 -0.0000  7.381952  9.225224 33.655870
490   2 -0.0000  7.636587 20.394421  7.505558
491   2 -0.0000  7.502245 20.230964 20.580714
492   2 -0.0000  7.367903 20.067507 33.655870
493   2 -0.0000  7.622538 31.236704  7.505558
494   2 -0.0000  7.488196 31.073247 20.580714
495   2 -0.0000  7.353854 30.909790 33.655870
496   2 -0.0000 16.436333  9.552138  7.505558
497   2 -0.0000 16.301991  9.388681 20.580714
498   2 -0.0000 16.167649  9.225224 33.655870
499   2 -0.0000 16.422284 20.394421  7.505558
500   2 -0.0000 16.287942 20.230964 20.580714
501   2 -0.0000 16.153600 20.067507 33.655870
502   2 -0.0000 16.408235 31.236704  7.505558
503   2 -0.0000 16.273893 31.073247 20.580714
504   2 -0.0000 16.139551 30.909790 33.655870
505   2 -0.0000 25.222030  9.552138  7.505558
506   2 -0.0000 25.087688  9.388681 20.580714
507   2 -0.0000 24.953346  9.225224 33.655870
508   2 -0.0000 25.207981 20.394421  7.505558
509   2 -0.0000 25.073639 20.230964 20.580714
510   2 -0.0000 24.939297 20.067507 33.655870
511   2 -0.0000 25.193932 31.236704  7.505558
512   2 -0.0000 25.059590 31.073247 20.580714
513   2 -0.0000 24.925248 30.909790 33.655870
514   2 -0.0000  0.986670  1.126688  5.569598
515   2 -0.0000  0.852328  0.963231 18.644754
516   2 -0.0000  0.717986  0.799774 31.719910
517   2 -0.0000  0.972621 11.968971  5.569598
518   2 -0.0000  0.838279 11.805514 18.644754
519   2 -0.0000  0.703937 11.642057 31.719910
520   2 -0.0000  0.958572 22.811254  5.569598
521   2 -0.0000  0.824230 22.647797 18.644754
522   2 -0.0000  0.689888 22.484340 31.719910
523   2 -0.0000  9.772367  1.126688  5.569598
524   2 -0.0000  9.638025  0.963231 18.644754
525   2 -0.0000  9.503683  0.799774 31.719910
526   2 -0.0000  9.758318 11.968971  5.569598
527   2 -0.0000  9.623976 11.805514 18.644754
528   2 -0.0000  9.489634 11.642057 31.719910
529   2 -0.0000  9.744269 22.811254  5.569598
530   2 -0.0000  9.609927 22.647797 18.644754
531   2 -0.0000  9.475585 22.484340 31.719910
532   2 -0.0000 18.558064  1.126688  5.569598
533   2 -0.0000 18.423722  0.963231 18.644754
534   2 -0.0000 18.289380  0.799774 31.719910
535   2 -0.0000 18.544015 11.968971  5.569598
536   2 -0.0000 18.409673 11.805514 18.644754
537   2 -0.0000 18.275331 11.642057 31.719910
538   2 -0.0000 18.529966 22.811254  5.569598
539   2 -0.0000 18.395624 22.647797 18.644754
540   2 -0.0000 18.261282 22.484340 31.719910
541   2 -0.0000  6.984725 10.577693 11.178958
542   2 -0.0000  6.850383 10.414236 24.254114
543   2 -0.0000  6.716041 10.250779 37.329270
544   2 -0.0000  6.970676 21.419976 11.178958
545   2 -0.0000  6.836334 21.256519 24.254114
546   2 -0.0000  6.701992 21.093062 37.329270
547   2 -0.0000  6.956627 32.262259 11.178958
548   2 -0.0000  6.822285 32.098802 24.254114
549   2 -0.0000  6.687943 31.935345 37.329270
550   2 -0.0000 15.770422 10.577693 11.178958
551   2 -0.0000 15.636080 10.414236 24.254114
552   2 -0.0000 15.501738 10.250779 37.329270
553   2 -0.0000 15.756373 21.419976 11.178958
554   2 -0.0000 15.622031 21.256519 24.254114
555   2 -0.0000 15.487689 21.093062 37.329270
556   2 -0.0000 15.742324 32.262259 11.178958
557   2 -0.0000 15.607982 32.098802 24.254114
558   2 -0.0000 15.473640 31.935345 37.329270
559   2 -0.0000 24.556119 10.577693 11.178958
560   2 -0.0000 24.421777 10.414236 24.254114
561   2 -0.0000 24.287435 10.250779 37.329270
562   2 -0.0000 24.542070 21.419976 11.178958
563   2 -0.0000 24.407728 21.256519 24.254114
564   2 -0.0000 24.273386 21.093062 37.329270
565   2 -0.0000 24.528021 32.262259 11.178958
566   2 -0.0000 24.393679 32.098802 24.254114
567   2 -0.0000 24.259337 31.935345 37.329270
568   2 -0.0000  1.652581  0.101133  1.896198
569   2 -0.0000  1.518239 -0.062324 14.971354
570   2 -0.0000  1.383897 -0.225781 28.046510
571   2 -0.0000  1.638532 10.943416  1.896198
572   2 -0.0000  1.504190 10.779959 14.971354
573   2 -0.0000  1.369848 10.616502 28.046510
574   2 -0.0000  1.624483 21.785699  1.896198
575   2 -0.0000  1.490141 21.622242 14.971354
576   2 -0.0000  1.355799 21.458785 28.046510
577   2 -0.0000 10.438278  0.101133  1.896198
578   2 -0.0000 10.303936 -0.062324 14.971354
579   2 -0.0000 10.169594 -0.225781 28.046510
580   2 -0.0000 10.424229 10.943416  1.896198
581   2 -0.0000 10.289887 10.779959 14.971354
582   2 -0.0000 10.155545 10.616502 28.046510
583   2 -0.0000 10.410180 21.785699  1.896198
584   2 -0.0000 10.275838 21.622242 14.971354
585   2 -0.0000 10.141496 21.458785 28.046510
586   2 -0.0000 19.223975  0.101133  1.896198
587   2 -0.0000 19.089633 -0.062324 14.971354
588   2 -0.0000 18.955291 -0.225781 28.046510
589   2 -0.0000 19.209926 10.943416  1.896198
590   2 -0.0000 19.075584 10.779959 14.971354
591   2 -0.0000 18.941242 10.616502 28.046510
592   2 -0.0000 19.195877 21.785699  1.896198
593   2 -0.0000 19.061535 21.622242 14.971354
594   2 -0.0000 18.927193 21.458785 28.046510
595   2 -0.0000  6.966245  4.764345  5.053142
596   2 -0.0000  6.831903  4.600888 18.128298
597   2 -0.0000  6.697561  4.437431 31.203454
598   2 -0.0000  6.952196 15.606628  5.053142
599   2 -0.0000  6.817854 15.443171 18.128298
600   2 -0.0000  6.683512 15.279714 31.203454
601   2 -0.0000  6.938147 26.448911  5.053142
602   2 -0.0000  6.803805 26.285454 18.128298
603   2 -0.0000  6.669463 26.121997 31.203454
604   2 -0.0000 15.751942  4.764345  5.053142
605   2 -0.0000 15.617600  4.600888 18.128298
606   2 -0.0000 15.483258  4.437431 31.203454
607   2 -0.0000 15.737893 15.606628  5.053142
608   2 -0.0000 15.603551 15.443171 18.128298
609   2 -0.0000 15.469209 15.279714 31.203454
610   2 -0.0000 15.723844 26.448911  5.053142
611   2 -0.0000 15.589502 26.285454 18.128298
612   2 -0.0000 15.455160 26.121997 31.203454
613   2 -0.0000 24.537639  4.764345  5.053142
614   2 -0.0000 24.403297  4.600888 18.128298
615   2 -0.0000 24.268955  4.437431 31.203454
616   2 -0.0000 24.523590 15.606628  5.053142
617   2 -0.0000 24.389248 15.443171 18.128298
618   2 -0.0000 24.254906 15.279714 31.203454
619   2 -0.0000 24.509541 26.448911  5.053142
620   2 -0.0000 24.375199 26.285454 18.128298
621   2 -0.0000 24.240857 26.121997 31.203454
622   2 -0.0000  1.671061  5.914481  8.022014
623   2 -0.0000  1.536719  5.751024 21.097170
624   2 -0.0000  1.402377  5.587567 34.172326
625   2 -0.0000  1.657012 16.756764  8.022014
626   2 -0.0000  1.522670 16.593307 21.097170
627   2 -0.0000  1.388328 16.429850 34.172326
628   2 -0.0000  1.642963 27.599047  8.022014
629   2 -0.0000  1.508621 27.435590 21.097170
630   2 -0.0000  1.374279 27.272133 34.172326
631   2 -0.0000 10.456758  5.914481  8.022014
632   2 -0.0000 10.322416  5.751024 21.097170
633   2 -0.0000 10.188074  5.587567 34.172326
634   2 -0.0000 10.442709 16.756764  8.022014
635   2 -0.0000 10.308367 16.593307 21.097170
636   2 -0.0000 10.174025 16.429850 34.172326
637   2 -0.0000 10.428660 27.599047  8.022014
638   2 -0.0000 10.294318 27.435590 21.097170
639   2 -0.0000 10.159976 27.272133 34.172326
640   2 -0.0000 19.242455  5.914481  8.022014
641   2 -0.0000 19.108113  5.751024 21.097170
642   2 -0.0000 18.973771  5.587567 34.172326
643   2 -0.0000 19.228406 16.756764  8.022014
644   2 -0.0000 19.094064 16.593307 21.097170
645   2 -0.0000 18.959722 16.429850 34.172326
646   2 -0.0000 19.214357 27.599047  8.022014