Generated by pymatgen.io.lammps.data.LammpsData

3625  atoms

   4  atom types

0.000000 27.729401  xlo xhi
0.000000 32.557337  ylo yhi
0.000000 63.438127  zlo zhi
-12.141273 -10.324197 -9.685184  xy xz yz

Masses

1    6.941000
2  238.028910
3   30.973762
4   15.999400

Atoms

1     1  0.5250  -0.565976  4.894996  0.786268
2     3  1.5750  -0.874427  3.020174  8.355241
3     4 -0.3675  -1.302107  4.790848  6.233258
4     4 -0.3675  -2.525021  5.123778  8.801571
5     3  1.5750  -1.367875  0.916178  6.541558
6     2 -0.0000  -0.624202  4.833243  3.540688
7     4 -0.3675  -0.598210 -1.098592  8.683234
8     4 -0.3675  -0.896453  2.435271  1.973236
9     3  1.5750  -1.858234  2.692355  4.590408
10    1  0.5250  -0.170788  5.187409  9.999655
11    4 -0.3675  -0.196596  0.411984  4.090500
12    4 -0.3675   0.817436  0.275429  1.503761
13    4 -0.3675   0.570162  2.671009  5.828559
14    4 -0.3675   1.051578  0.932567  7.919652
15    1  0.5250   5.330093  4.759055  1.005141
16    2 -0.0000   1.055561  4.902426  7.545227
17    2 -0.0000   5.967724  5.140803  7.472484
18    3  1.5750   4.844654  0.508565  6.826456
19    3  1.5750   5.337189  2.730121  8.534283
20    3  1.5750   3.179127  0.361041  2.749699
21    3  1.5750   8.031289  0.633511  2.709566
22    3  1.5750   3.695545  2.646985  4.361294
23    3  1.5750   8.449237  2.867590  4.428927
24    4 -0.3675   5.617759  0.720637  1.081312
25    4 -0.3675   1.808947  5.010240  2.106456
26    4 -0.3675   7.800330  5.003165  2.376883
27    4 -0.3675   2.279761  0.576345  5.504644
28    4 -0.3675   7.666695  0.489814  5.456225
29    4 -0.3675   1.415999  2.812750  0.376098
30    4 -0.3675   7.408898  2.661468  0.635623
31    4 -0.3675   5.635937  0.544588  3.929704
32    4 -0.3675   3.503296  1.011460  9.346417
33    4 -0.3675   2.946104  2.787617  7.128315
34    4 -0.3675   7.911077  2.900667  7.159899
35    4 -0.3675   7.215856  0.467453  8.109905
36    4 -0.3675   3.828593  5.038188  6.147366
37    4 -0.3675   1.285262  2.506670  3.290909
38    4 -0.3675   6.153703  2.916481  2.920786
39    4 -0.3675   3.446881  4.964015  9.050997
40    4 -0.3675   8.160680  5.259019  8.765600
41    4 -0.3675   5.762181  2.712331  5.829911
42    4 -0.3675   3.703152  2.722648  1.654689
43    2 -0.0000   4.234415  5.120841  3.444731
44    4 -0.3675   1.624440  4.863395  4.779360
45    4 -0.3675   6.838741  5.097994  4.898651
46    4 -0.3675   1.583709  3.005340  9.620441
47    4 -0.3675   7.713570  2.830230  9.884051
48    1  0.5250   1.684664 -1.044507 10.058862
49    1  0.5250   7.870524 -1.150389 10.142309
50    1  0.5250   5.870478  4.993719 10.355308
51    4 -0.3675  -0.118874  1.006343 10.531689
52    4 -0.3675   5.766897  0.927912 10.602237
53    4 -0.3675   9.193982  0.339982  0.162765
54    4 -0.3675   9.704971  2.619896  2.002449
55    4 -0.3675   9.352646  5.142178  6.340830
56    4 -0.3675   9.655391  0.661013  9.602374
57    3  1.5750   9.888490  0.782199  6.870498
58    1  0.5250  10.093715  5.068718  0.773530
59    1  0.5250  16.414477  4.804340  0.976153
60    2 -0.0000  11.766448  5.023313  7.698258
61    2 -0.0000  16.898260  5.182828  7.466151
62    3  1.5750  15.317472  0.532247  6.760097
63    3  1.5750  10.076469  3.054698  8.496293
64    3  1.5750  16.128800  2.769822  8.590159
65    3  1.5750  13.949241  0.436881  2.743633
66    3  1.5750  14.431907  2.755379  4.402028
67    4 -0.3675  11.544834  0.442115  1.536899
68    4 -0.3675  16.382493  0.839399  1.145143
69    4 -0.3675  12.492439  4.978654  2.157444
70    4 -0.3675  12.913295  0.698313  5.370100
71    4 -0.3675  12.099219  2.965302  0.344256
72    4 -0.3675  18.348763  2.736561  0.653535
73    4 -0.3675  10.417939  0.833772  4.208601
74    4 -0.3675  16.082640  0.603254  4.038099
75    4 -0.3675  14.361442  0.690523  9.303725
76    4 -0.3675  12.504157  3.041131  9.724270
77    4 -0.3675  13.668735  2.819522  7.131791
78    4 -0.3675  12.152350  0.748925  8.010785
79    4 -0.3675  17.882297  0.652520  7.975633
80    4 -0.3675  14.635617  5.136246  6.178359
81    4 -0.3675  12.105342  2.671084  3.297325
82    4 -0.3675  14.320324  4.986559  8.982647
83    4 -0.3675  11.079993  2.975794  5.882031
84    4 -0.3675  16.472611  2.835164  5.925299
85    4 -0.3675  14.400746  2.849061  1.579385
86    2 -0.0000  18.822459  9.491489 20.499195
87    4 -0.3675  16.878905  3.061770  3.083060
88    2 -0.0000  10.009729  4.862436  3.712662
89    2 -0.0000  14.885250  5.166821  3.245920
90    4 -0.3675  12.397801  4.974934  4.982223
91    4 -0.3675  17.454619  5.211865  4.740108
92    1  0.5250  10.515894  5.345464 10.097284
93    1  0.5250  16.697358  5.053334 10.326253
94    2 -0.0000  22.119225  7.419094 11.815686
95    4 -0.3675  18.249506  0.767716  5.349313
96    4 -0.3675  18.710721  3.077407  7.096775
97    4 -0.3675  18.495839  2.856364  9.822100
98    1  0.5250  18.625815 -1.248377  9.981402
99    4 -0.3675  25.131158  0.904667  9.190461
100   4 -0.3675  18.895623  5.020356  2.328467
101   3  1.5750  18.722966  0.695984  2.534135
102   1  0.5250  22.535234  4.645386  1.037687
103   2 -0.0000  22.740823  5.199249  7.387259
104   3  1.5750  20.652095  0.891285  6.514291
105   3  1.5750  20.975020  3.367120  8.214649
106   3  1.5750  25.015758  0.489831  2.773354
107   3  1.5750  19.347873  3.009107  4.455160
108   4 -0.3675  22.586261  0.601135  1.388476
109   4 -0.3675  24.849210  4.476860  2.316971
110   4 -0.3675  26.259738  0.189988  0.232517
111   4 -0.3675  23.851315  0.889120  5.191434
112   4 -0.3675  24.502033  2.333409  0.601852
113   4 -0.3675  21.103043  0.959890  3.827660
114   4 -0.3675  20.407675  0.858234  9.273698
115   4 -0.3675  23.314846  3.208492  9.658156
116   4 -0.3675  24.516679  2.906785  7.090446
117   4 -0.3675  22.899616  1.158122  7.793199
118   4 -0.3675  20.084327  5.111438  6.009826
119   4 -0.3675  23.223624  2.580916  3.264318
120   4 -0.3675  19.161308  5.256646  8.729372
121   4 -0.3675  21.984892  3.145902  5.684127
122   4 -0.3675  20.668539  2.826907  1.872581
123   2 -0.0000  21.339581  4.615211  3.624620
124   4 -0.3675  23.993639  4.713822  4.997080
125   1  0.5250  21.478348  5.318145 10.073302
126   4 -0.3675  18.836501  9.690319 17.620768
127   4 -0.3675  20.165812  0.617444  0.115271
128   4 -0.3675  -4.492525  7.143188  9.417068
129   1  0.5250  -2.379507 11.334308  1.086775
130   2 -0.0000  -1.974816 11.651062  7.443047
131   2 -0.0000  -3.687508 11.630161  3.566185
132   3  1.5750  -0.506906 13.720207  6.609615
133   3  1.5750  -2.708775  9.275195  8.619840
134   3  1.5750  -1.888963 13.549094  2.697851
135   4 -0.3675  -2.357055  7.073277  1.249292
136   4 -0.3675  -4.372929 13.227314  1.365976
137   4 -0.3675  -1.097783 11.530404  4.754042
138   4 -0.3675  -0.366751  7.092998  5.231348
139   4 -0.3675  -2.889917 13.629044  5.295459
140   4 -0.3675  -0.583063  9.134731  0.449367
141   4 -0.3675  -2.667323  6.998541  3.935989
142   4 -0.3675  -5.547010 13.741766  4.061816
143   4 -0.3675  -1.501811 13.785899  9.054327
144   4 -0.3675  -0.639971  7.005672  7.968315
145   4 -0.3675  -3.869260 13.879075  7.854813
146   4 -0.3675  -4.331514 11.598370  6.253521
147   4 -0.3675  -1.812938  9.389760  3.017096
148   4 -0.3675  -4.590503 11.406960  9.006425
149   4 -0.3675  -2.270709  9.349479  5.823349
150   3  1.5750  -3.175373  7.040846  6.672933
151   3  1.5750  -6.238934 13.825725  6.693174
152   4 -0.3675  -6.372841 13.551598  9.464623
153   4 -0.3675  -6.100290 15.614001  1.789750
154   4 -0.3675  -3.718801 15.824308  0.319240
155   4 -0.3675  -1.364906 15.910308  1.588098
156   1  0.5250  -2.127501 11.473080 10.315475
157   4 -0.3675  22.677816  9.090260  7.262157
158   4 -0.3675  -3.816179 15.578892  3.081352
159   4 -0.3675  -0.233305  9.236887  9.757354
160   4 -0.3675   0.044532 11.299094  2.336179
161   4 -0.3675   0.065857  9.510257  6.971498
162   4 -0.3675   0.276004 13.562895  3.979584
163   4 -0.3675   0.322602 11.729131  8.644903
164   4 -0.3675   1.754103  7.168760  9.430175
165   4 -0.3675   6.402089  7.426454  9.274927
166   3  1.5750   0.137559  7.282094  2.470155
167   1  0.5250   2.323598 11.616068  0.685554
168   1  0.5250   8.529866 11.341960  0.811124
169   2 -0.0000   3.998853 11.549019  7.510345
170   2 -0.0000   2.271806 11.334909  3.582596
171   2 -0.0000   7.359177 11.694106  3.423197
172   3  1.5750   1.861934  7.312901  6.640882
173   3  1.5750   7.516055  7.259913  6.683114
174   3  1.5750   4.655292 13.839211  6.564385
175   3  1.5750   2.277839  9.649883  8.535916
176   3  1.5750   8.061245  9.397799  8.520741
177   3  1.5750   5.953957  7.088772  2.763408
178   3  1.5750   3.011171 13.823684  2.398675
179   3  1.5750   0.668817  9.317524  4.334343
180   3  1.5750   6.438163  9.454259  4.171079
181   4 -0.3675   3.615470  7.055953  1.400766
182   4 -0.3675   0.470967 13.799409  1.263604
183   4 -0.3675   6.664103 13.664350  1.417254
184   4 -0.3675   4.537821 11.607834  4.839688
185   4 -0.3675   4.836995 11.612159  2.012968
186   4 -0.3675   8.021888 14.066736 14.386898
187   4 -0.3675   4.228968 13.575733  0.084475
188   4 -0.3675   5.041666  7.382758  5.227036
189   4 -0.3675   2.573269 13.712717  5.132479
190   4 -0.3675   7.981269 13.967972  5.191812
191   4 -0.3675   4.263858  9.386231  0.351262
192   4 -0.3675   2.418843  7.202578  3.813889
193   4 -0.3675   8.292946  7.184397  4.101438
194   4 -0.3675   5.344001 13.984708  3.812167
195   4 -0.3675   4.502249 13.730700  9.358792
196   4 -0.3675   4.601153  9.620524  9.698037
197   4 -0.3675   5.725358  9.431772  6.938502
198   4 -0.3675   4.230277  7.325480  7.809478
199   4 -0.3675   2.013323 13.694086  7.944947
200   4 -0.3675   7.027496 14.086809  7.765583
201   4 -0.3675   1.523386 11.606166  6.205274
202   4 -0.3675   6.779320 11.781457  6.049189
203   4 -0.3675   3.976001  9.296010  3.122342
204   4 -0.3675   6.369486 11.726136  8.862481
205   4 -0.3675   3.084180  9.423668  5.665899
206   4 -0.3675   8.549050  9.501397  5.656146
207   4 -0.3675   1.799291  9.169282  1.638409
208   4 -0.3675   6.680292  9.453178  1.563709
209   2 -0.0000   8.849780 11.629978  7.622199
210   4 -0.3675   8.443495  7.391353  1.213121
211   4 -0.3675   9.161304  9.464236  2.971848
212   4 -0.3675   8.319119 15.572326  0.456132
213   1  0.5250   2.694383 11.866422 10.052955
214   4 -0.3675   2.431162 15.745406  0.627983
215   4 -0.3675   4.848595 15.918292  1.840930
216   1  0.5250   8.821036 11.622611 10.334647
217   3  1.5750   9.118461 13.574599  2.625244
218   4 -0.3675   9.338405 14.098095  9.118669
219   4 -0.3675  12.378319  7.316943  9.504027
220   4 -0.3675  17.314834  7.451121  9.252003
221   4 -0.3675  10.191336 13.329101  0.164993
222   4 -0.3675  10.234476  9.190200  0.380759
223   4 -0.3675  10.553602  9.480011  9.849068
224   4 -0.3675  10.068045  7.254290  8.030590
225   1  0.5250  14.379632 11.113343  1.108204
226   2 -0.0000  14.611138 11.728769  7.414299
227   2 -0.0000  13.402419 11.466404  3.599129
228   3  1.5750  12.802147  7.302533  6.693205
229   3  1.5750  10.352323 13.752001  6.634820
230   3  1.5750  18.339364  7.292838  6.591444
231   3  1.5750  16.543678 13.554327  6.652118
232   3  1.5750  13.039717  9.602264  8.259147
233   3  1.5750  10.873291  7.141860  2.545846
234   3  1.5750  16.962069  7.015870  2.600764
235   3  1.5750  14.907055 13.484842  2.587217
236   3  1.5750  11.585809  9.595579  4.468934
237   3  1.5750  17.679398  9.001209  4.391790
238   4 -0.3675  14.342287  7.081221  1.283185
239   4 -0.3675  12.415896 13.391766  1.509301
240   4 -0.3675  17.391858 13.578965  1.163083
241   4 -0.3675   9.695765 11.719576  4.771789
242   4 -0.3675  16.009327 11.316016  4.852491
243   4 -0.3675  10.896216 11.369588  2.191253
244   4 -0.3675  16.813261 11.094155  2.259723
245   4 -0.3675  18.264201  6.642761  0.127467
246   4 -0.3675  10.631410  7.302985  5.319611
247   4 -0.3675  15.709137  7.341124  5.147776
248   4 -0.3675  14.123019 13.451316  5.196438
249   4 -0.3675  16.202156  9.043195  0.651589
250   4 -0.3675  13.312927  7.478728  3.893846
251   4 -0.3675  11.584425 13.372511  4.053294
252   4 -0.3675  17.136933 13.511146  3.971056
253   4 -0.3675  15.325156 13.851440  9.163519
254   4 -0.3675  15.426121  9.787463  9.468053
255   4 -0.3675  10.762999  9.598791  7.001010
256   4 -0.3675  16.539213  9.405197  7.037318
257   4 -0.3675  15.061321  7.365762  7.890635
258   4 -0.3675  12.945814 13.925758  7.839974
259   4 -0.3675  12.263813 11.694314  6.210730
260   4 -0.3675  15.034217  9.309864  3.107420
261   4 -0.3675  11.196083 11.793204  8.784469
262   4 -0.3675  17.099235 11.719918  8.840081
263   4 -0.3675  14.031731  9.630752  5.654156
264   4 -0.3675  12.544675  9.203153  1.742675
265   1  0.5250  13.525194 11.902125  9.987600
266   4 -0.3675  10.668330 15.612555  1.690424
267   4 -0.3675  13.150516 15.702462  0.363745
268   4 -0.3675  12.783003 15.593143  3.194154
269   4 -0.3675  11.748980 14.167840 10.314406
270   4 -0.3675  17.731896 13.694506 10.613400
271   4 -0.3675  15.465999 15.996459  1.639441
272   4 -0.3675  18.414209 11.259043  6.359847
273   4 -0.3675  18.739481  9.005693  1.749206
274   3  1.5750  23.228170  9.277378  4.566856
275   2 -0.0000  18.932300 11.212572  3.613959
276   4 -0.3675  19.317144 15.695226  0.445097
277   4 -0.3675  19.029161 13.487657  7.949149
278   4 -0.3675  23.479397  9.214078  1.847329
279   4 -0.3675  19.381235 13.567382  5.220874
280   4 -0.3675  19.499082  6.888881  4.139298
281   1  0.5250  19.173716 11.385612  0.771835
282   2 -0.0000  20.828000 11.204879  7.722715
283   3  1.5750  18.808737  9.382898  8.471169
284   3  1.5750  22.744315  6.847666  2.795891
285   3  1.5750  19.768864 13.620059  2.514128
286   4 -0.3675  20.558775  6.942219  1.492577
287   4 -0.3675  21.243529 11.314459  5.032681
288   4 -0.3675  21.561730 11.500487  2.303766
289   4 -0.3675  21.025498 13.452477  0.153434
290   4 -0.3675  22.102954  6.949671  5.440797
291   4 -0.3675  20.976831  9.308074  0.432604
292   4 -0.3675  21.387937  9.374137  9.641493
293   4 -0.3675  20.864883  7.269454  7.946976
294   4 -0.3675  20.865772  9.081690  3.316569
295   4 -0.3675  20.110451  9.069050  5.936565
296   1  0.5250  19.454724 11.476467 10.189016
297   4 -0.3675  19.700191  7.454159 10.512352
298   4 -0.3675   5.612220 13.634855 15.988554
299   1  0.5250  -1.910932  2.908647 13.645059
300   2 -0.0000  -3.396881  3.306730 16.246215
301   3  1.5750  -0.414428  5.408354 19.327111
302   4 -0.3675  -2.112053 -1.174386 13.995649
303   4 -0.3675  -3.694396  5.208813 14.170181
304   4 -0.3675  -0.884858  3.303924 17.446956
305   4 -0.3675  -2.757855  5.520376 17.817863
306   4 -0.3675  -1.969534 -1.418502 16.848023
307   4 -0.3675  -1.916787  3.166570 10.947761
308   4 -0.3675  -3.150809  3.230256 19.024232
309   4 -0.3675  -1.385148  1.065906 15.722970
310   4 -0.3675  -1.397476  0.716192 18.476213
311   3  1.5750  -3.365833 -1.342872 19.334520
312   3  1.5750  -5.091403  5.178317 19.518646
313   4 -0.3675  -0.798023 -1.413623 11.613873
314   4 -0.3675  -3.779608  5.321472 11.401260
315   3  1.5750  -1.395434  5.182399 15.495522
316   4 -0.3675  -1.482919  5.512063 12.559401
317   4 -0.3675  -5.142598  5.387054 16.543496
318   3  1.5750  -3.686069  0.894884 17.622169
319   2 -0.0000  -2.541208  0.714560 12.028592
320   4 -0.3675  -0.922477 -1.175976 20.691056
321   4 -0.3675  -2.782817  5.173842 20.896820
322   2 -0.0000  -0.947196  2.900321 20.329297
323   3  1.5750  -2.898943  1.043173 20.716083
324   4 -0.3675  -0.183456  0.791508 13.258936
325   4 -0.3675   0.515475  3.185169 14.953521
326   4 -0.3675   0.277250 -1.367106 18.224507
327   3  1.5750   0.302820 -1.101868 15.385572
328   1  0.5250   2.745603  3.308805 13.502096
329   1  0.5250   8.767302  3.289043 13.766416
330   2 -0.0000   3.643720  3.244907 20.051955
331   2 -0.0000   2.730099  2.932529 16.384268
332   2 -0.0000   7.330989  3.573875 16.308753
333   2 -0.0000   2.238359  1.141705 11.769854
334   2 -0.0000   8.141061  1.046300 11.856961
335   3  1.5750   2.693755 -1.249064 19.492251
336   3  1.5750   7.478959 -1.028364 19.300182
337   3  1.5750   5.584148  5.183310 19.390134
338   3  1.5750   6.517093 -1.220433 15.728854
339   3  1.5750   0.874414  0.904171 17.130005
340   3  1.5750   6.983569  1.003440 17.351830
341   4 -0.3675   4.074685 -1.392782 14.327362
342   4 -0.3675   0.861964  5.589719 13.777747
343   4 -0.3675   6.947996  5.346994 14.154807
344   4 -0.3675   5.016412  3.015802 17.654037
345   4 -0.3675   3.987263 -1.031962 11.280964
346   4 -0.3675   2.209282  5.262959 11.516468
347   4 -0.3675   8.273989  5.093217 11.742642
348   4 -0.3675   5.109141  3.357804 14.821222
349   4 -0.3675   1.728795 -1.438576 12.964434
350   4 -0.3675   6.468575 -1.049302 12.727494
351   4 -0.3675   5.092897 -1.004042 18.070305
352   4 -0.3675   3.236256  5.192612 18.094917
353   4 -0.3675   7.785388  5.736795 17.877300
354   4 -0.3675   4.525837  1.041438 13.063024
355   4 -0.3675   0.375026  3.261984 12.027882
356   4 -0.3675   6.517442  3.071249 12.343008
357   4 -0.3675   2.672185 -1.232764 16.815139
358   4 -0.3675   8.905165 -1.169970 16.896610
359   4 -0.3675   3.978270  3.167405 11.038655
360   4 -0.3675   0.842397  0.818651 19.940655
361   4 -0.3675   5.574704  1.230927 19.787737
362   4 -0.3675   1.312079  3.238339 18.810303
363   4 -0.3675   7.509291  3.011467 19.091035
364   4 -0.3675   4.549062  0.809764 16.016022
365   4 -0.3675   3.123295  1.128832 18.355358
366   4 -0.3675   2.170188  0.818965 14.651167
367   4 -0.3675   6.882624  1.298078 14.430206
368   4 -0.3675   8.836394 -0.792870 13.938839
369   4 -0.3675   0.917418  5.289330 16.813665
370   3  1.5750   3.135710  5.489447 15.218377
371   4 -0.3675   4.744665  5.239141 12.832622
372   4 -0.3675   5.536193  5.631809 16.368526
373   4 -0.3675   2.134731  5.338091 20.485992
374   4 -0.3675   7.967075  5.407820 20.819554
375   4 -0.3675   5.108432 -1.295555 20.866091
376   3  1.5750   7.973256  1.173455 21.067098
377   4 -0.3675   9.353723  1.300646 15.647451
378   3  1.5750   9.353606  5.398389 15.437384
379   4 -0.3675   9.435522  0.890695 18.544204
380   4 -0.3675  10.059884  3.024719 11.259773
381   4 -0.3675  10.223734 -1.351331 11.476254
382   1  0.5250  14.855570  2.893605 13.913882
383   2 -0.0000  14.595198  3.254066 19.904353
384   2 -0.0000  13.589295  3.113626 16.423284
385   2 -0.0000  14.339197  0.621255 12.202386
386   3  1.5750  13.676336 -1.197070 19.446494
387   3  1.5750  10.272046  5.612307 19.161148
388   3  1.5750  18.129916 -1.080324 19.139732
389   3  1.5750  16.541312  5.224776 19.330232
390   3  1.5750  11.076247 -1.062503 15.228088
391   3  1.5750  17.367167 -1.260228 15.309332
392   3  1.5750  11.735485  1.153687 16.838115
393   3  1.5750  17.677842  0.855589 17.100584
394   4 -0.3675  15.032846 -1.381458 14.067554
395   4 -0.3675  13.172586  5.124368 14.446249
396   4 -0.3675  17.835598  5.123670 16.890826
397   4 -0.3675   9.793396  3.450291 17.604362
398   4 -0.3675  16.018652  3.089447 17.631641
399   4 -0.3675  16.314125 -1.540163 11.817722
400   4 -0.3675  12.913285  5.312747 11.479410
401   4 -0.3675  11.680057  5.282105 16.724901
402   4 -0.3675  11.247463  3.059712 14.952795
403   4 -0.3675  17.375349  2.881836 15.301093
404   4 -0.3675  12.633482 -1.448285 12.772666
405   4 -0.3675  11.400646 -1.243349 18.160255
406   4 -0.3675  15.810139 -1.098076 17.673300
407   4 -0.3675  14.005898  5.400974 18.163481
408   4 -0.3675  10.629706  0.926503 13.194586
409   4 -0.3675  16.785554  0.776303 13.468727
410   4 -0.3675  11.954937  0.653445 10.932555
411   4 -0.3675  16.610156  0.837888 10.640698
412   4 -0.3675  12.543979  2.821351 12.649829
413   4 -0.3675  13.498101 -1.012551 16.339598
414   4 -0.3675  14.884037  3.064352 10.984206
415   4 -0.3675  11.856731  0.922787 19.865735
416   4 -0.3675  16.491554  1.057781 19.653643
417   4 -0.3675  12.174598  3.427042 18.826512
418   4 -0.3675  18.301085  3.090433 18.957985
419   4 -0.3675  15.362130  0.973526 15.751762
420   4 -0.3675  14.158447  1.156682 18.267796
421   4 -0.3675  12.914397  0.893901 14.474632
422   4 -0.3675  17.919363  5.229013 14.100240
423   4 -0.3675  17.276520  3.076895 12.510156
424   3  1.5750  15.491971  4.961290 15.745433
425   4 -0.3675  10.806849  5.062506 13.045475
426   4 -0.3675  15.448856  5.296986 12.800360
427   4 -0.3675  12.720465  5.565909 20.620097
428   4 -0.3675   9.813676 -0.904421 20.607432
429   2 -0.0000   9.859496  3.068111 20.379948
430   4 -0.3675  15.855688 -1.320642 20.759399
431   2 -0.0000   2.867353 -1.146249  7.533416
432   4 -0.3675  18.788462 -1.461854 12.778649
433   4 -0.3675  19.133237  5.037652 11.575179
434   4 -0.3675  19.207890  0.674148 14.795107
435   4 -0.3675  21.626328  5.089708 12.931829
436   3  1.5750  20.201844  5.251536 15.317571
437   4 -0.3675  23.315257  2.914867 12.420722
438   4 -0.3675  23.902140  1.033759 14.574079
439   2 -0.0000  19.694141  2.953089 16.568079
440   1  0.5250  19.684214  3.061000 13.678633
441   2 -0.0000  20.739842  3.319679 20.194226
442   2 -0.0000  19.051487  0.987665 11.784980
443   3  1.5750  23.325479 -1.444880 15.690003
444   4 -0.3675  21.126419 -1.408385 14.272737
445   4 -0.3675  22.053894  2.936224 17.846126
446   4 -0.3675  20.998381 -1.097055 11.210169
447   4 -0.3675  21.972759  3.207278 14.891335
448   4 -0.3675  23.235757 -1.172362 12.655536
449   4 -0.3675  22.064060 -1.276485 18.081935
450   4 -0.3675  20.270158  4.973385 18.176619
451   4 -0.3675  21.487221  0.931932 13.143542
452   4 -0.3675  22.855360  0.750446 10.636898
453   4 -0.3675  19.685527 -1.204055 16.689827
454   4 -0.3675  20.921467  2.852089 11.058642
455   4 -0.3675  22.427643  1.049510 19.725497
456   4 -0.3675  21.631522  0.777639 16.173389
457   4 -0.3675  20.009580  0.958700 18.466626
458   4 -0.3675  20.620624 -1.081024 20.413486
459   4 -0.3675  18.811089  5.257173 20.604864
460   3  1.5750  18.942825  1.163952 20.944966
461   4 -0.3675  -7.008472  7.270765 20.009231
462   4 -0.3675  -2.982231 13.883128 14.510164
463   4 -0.3675  -5.654456  7.248418 14.560415
464   4 -0.3675  -5.273461 13.870775 13.163450
465   2 -0.0000  -7.637269 13.667887 12.040009
466   3  1.5750  -8.442404 11.841389 19.343345
467   2 -0.0000  -1.578747 13.662409 12.038637
468   4 -0.3675  -5.881808 11.596223 11.502790
469   1  0.5250  -5.208026  9.720163 13.530641
470   2 -0.0000  -4.052916  9.618342 19.962972
471   2 -0.0000  -5.022170  9.449082 16.428729
472   2 -0.0000  -0.377033  9.786015 16.046759
473   3  1.5750  -2.142770 11.718776 19.322713
474   3  1.5750  -4.701581 11.840885 15.079918
475   3  1.5750  -0.832598  7.399541 17.336736
476   4 -0.3675  -7.069083 11.664199 13.894580
477   4 -0.3675  -0.973310 11.749405 13.980606
478   4 -0.3675  -2.664058  9.429360 17.674462
479   4 -0.3675  -2.704252  9.741787 14.785834
480   4 -0.3675  -3.336844 11.693247 12.750590
481   4 -0.3675  -4.506224 11.602969 18.133966
482   4 -0.3675  -3.269007  7.592072 12.993751
483   4 -0.3675  -2.004447  7.281053 10.471958
484   4 -0.3675  -3.961801 13.603864 10.685491
485   4 -0.3675  -1.497845  9.550456 12.293072
486   4 -0.3675  -6.943209 11.593020 16.837768
487   4 -0.3675  -2.274322 11.937672 16.436352
488   4 -0.3675  -4.006857  9.515795 11.151024
489   4 -0.3675  -2.167638  7.526489 19.720142
490   4 -0.3675  -6.502412  9.740335 18.802048
491   4 -0.3675  -0.293288  9.561701 19.078085
492   4 -0.3675  -3.279043  7.355795 15.892916
493   4 -0.3675  -4.740222  7.594640 18.471690
494   4 -0.3675  -0.950726  7.662080 14.406252
495   4 -0.3675  -5.961865 11.944519 20.352764
496   4 -0.3675   0.776011 13.921691 10.420686
497   4 -0.3675   8.676464  7.579007 10.512096
498   4 -0.3675   0.071624 11.975722 17.836032
499   4 -0.3675   5.537526 14.073708 13.138947
500   4 -0.3675   3.192166 13.772425 14.705972
501   4 -0.3675   0.722843 13.760251 13.306434
502   2 -0.0000   3.204818 13.989817 11.700208
503   4 -0.3675   0.147800 11.385419 11.473845
504   2 -0.0000   0.356690  7.460353 11.763785
505   1  0.5250   0.973021  9.579976 13.554345
506   1  0.5250   7.002955  9.464150 13.786792
507   2 -0.0000   1.968811  9.688055 20.394053
508   2 -0.0000   6.605241  9.878553 20.036550
509   2 -0.0000   5.573991  9.700850 16.419195
510   2 -0.0000   6.455296  7.297719 12.070907
511   3  1.5750   2.394102 12.112858 19.359824
512   3  1.5750   8.438631 11.878807 19.281395
513   3  1.5750   1.329965 11.752236 15.285187
514   3  1.5750   7.506068 11.718026 15.707764
515   3  1.5750   3.761346  7.654802 17.062610
516   4 -0.3675   5.120312 11.526799 14.199387
517   4 -0.3675   1.876089  9.949994 17.464862
518   4 -0.3675   7.943002  9.742494 17.590443
519   4 -0.3675   5.092780 11.827823 11.429481
520   4 -0.3675   3.212508  9.697347 15.057193
521   4 -0.3675   2.728901 11.543536 12.882679
522   4 -0.3675   7.437798 12.066466 12.739344
523   4 -0.3675   6.086326 11.909627 18.067900
524   4 -0.3675   2.789355  7.379306 13.197180
525   4 -0.3675   8.804226  7.354728 13.452810
526   4 -0.3675   4.059929  7.090556 10.752148
527   4 -0.3675   6.976038 13.786329 10.670899
528   4 -0.3675   4.555470  9.368169 12.611919
529   4 -0.3675   3.731147 11.884922 16.556437
530   4 -0.3675   2.226255  9.402694 11.209098
531   4 -0.3675   7.008396  9.747659 10.998146
532   4 -0.3675   3.732993  7.414415 19.845405
533   4 -0.3675   8.460312  7.793421 19.637309
534   4 -0.3675   4.245131  9.981365 18.770796
535   4 -0.3675   1.434712  7.729013 15.576925
536   4 -0.3675   7.423543  7.595292 15.886431
537   4 -0.3675   1.533495  7.454454 18.499090
538   4 -0.3675   6.053375  7.732758 18.329352
539   4 -0.3675   5.088108  7.589870 14.552905
540   4 -0.3675   4.833743 12.117183 20.647158
541   4 -0.3675   0.133232 11.783038 20.807895
542   3  1.5750   0.352882  7.601380 21.008047
543   4 -0.3675  19.677956  7.117047 13.308741
544   4 -0.3675  17.002389 11.645434 20.883995
545   4 -0.3675  14.123335 13.713461 14.808389
546   4 -0.3675  16.433326 13.975651 13.113151
547   4 -0.3675   9.322915  9.856610 12.256502
548   2 -0.0000   9.522899 13.770702 12.044632
549   4 -0.3675   9.304157  9.541026 15.122008
550   2 -0.0000  13.984246 14.004203 11.728613
551   4 -0.3675  11.853530 13.880378 13.392099
552   4 -0.3675  13.446317  7.349956 13.123281
553   4 -0.3675   9.982665 11.744189 16.957820
554   4 -0.3675  18.342164  7.499507 15.718730
555   4 -0.3675  16.009681  7.495622 14.553932
556   4 -0.3675  11.184351  7.210842 14.769165
557   4 -0.3675  18.478541  7.263257 18.668367
558   4 -0.3675  12.241548  7.504493 18.493967
559   4 -0.3675  13.581486  7.255230 16.117098
560   4 -0.3675  16.523748  9.250374 19.107941
561   4 -0.3675  10.282476  9.605313 18.840710
562   4 -0.3675  14.702099  7.360455 19.845691
563   4 -0.3675  17.629358  9.655258 10.971462
564   4 -0.3675  13.021033  9.461355 11.176511
565   4 -0.3675  14.423633 11.783004 16.847397
566   4 -0.3675  15.418819  9.414559 12.504364
567   4 -0.3675  14.755993  7.280641 10.653368
568   4 -0.3675  11.324065 11.728836 11.636295
569   1  0.5250  11.722606  9.702468 13.531236
570   1  0.5250  17.832560  9.362617 13.813575
571   2 -0.0000  12.805362  9.643587 20.328378
572   2 -0.0000  11.714535  9.377286 16.412000
573   2 -0.0000  16.427231  9.621784 16.336582
574   2 -0.0000  10.945616  7.581455 11.958036
575   2 -0.0000  17.249467  7.167507 12.122594
576   3  1.5750  14.631879 11.513374 19.627253
577   3  1.5750  12.116118 11.825916 15.288250
578   3  1.5750  18.368886 11.592330 15.633336
579   3  1.5750   9.832156  7.491918 17.161427
580   3  1.5750  15.999511  7.213392 17.391980
581   4 -0.3675   9.837873 11.989338 14.029195
582   4 -0.3675  15.960449 11.567898 14.284067
583   4 -0.3675  14.181618  9.419734 17.870928
584   4 -0.3675  15.864164 11.846871 11.346912
585   4 -0.3675  14.127417  9.640541 14.860101
586   4 -0.3675  13.701705 11.656717 12.818820
587   4 -0.3675  18.206027 11.794194 12.673245
588   4 -0.3675  12.232003 11.322412 18.321977
589   4 -0.3675  16.952992 11.802820 18.049810
590   4 -0.3675  10.791875 11.900385 20.601899
591   3  1.5750  10.919843  7.737049 20.929703
592   3  1.5750  17.018723  7.427430 21.119162
593   4 -0.3675  20.173778  9.419262 15.110043
594   3  1.5750  20.738368  7.434638 17.087408
595   4 -0.3675  18.751329 14.064408 14.354407
596   4 -0.3675  20.107132  9.540290 12.268481
597   3  1.5750   9.896800 15.571608  4.467954
598   4 -0.3675   7.263098 15.786085  3.213738
599   4 -0.3675  17.999144 15.692439  2.813420
600   4 -0.3675   5.245554 -1.346304  8.943755
601   4 -0.3675  12.005797  6.954799  0.007915
602   1  0.5250  -4.163424  1.049545 26.465537
603   2 -0.0000  -5.545351  1.236954 28.954075
604   4 -0.3675  -3.922869 -3.294468 29.483873
605   4 -0.3675  -4.126351  1.281878 23.455607
606   4 -0.3675  -4.290325 -3.052202 26.589602
607   4 -0.3675  -3.592167 -0.953797 28.332676
608   2 -0.0000  -4.823749 -1.180672 24.607718
609   3  1.5750  -5.994545 -1.214963 29.871864
610   4 -0.3675  -6.036795  3.132703 26.892729
611   4 -0.3675  -4.663844  3.163844 21.561081
612   4 -0.3675  -5.473091  0.960874 31.711362
613   4 -0.3675  -3.649491 -1.285836 31.273606
614   4 -0.3675  -2.413686 -1.128121 25.846228
615   1  0.5250   0.481010  1.371866 26.101254
616   1  0.5250  -0.571007 -3.155800 22.732327
617   2 -0.0000   0.528232  1.091112 29.140315
618   2 -0.0000   5.241002  1.352927 28.689539
619   2 -0.0000   0.014648 -0.937818 24.316331
620   3  1.5750   3.180884  0.783317 21.221507
621   3  1.5750  -1.836981 -3.072962 27.768653
622   3  1.5750   4.220339 -3.304317 28.041575
623   3  1.5750  -1.418657 -0.852600 29.697956
624   3  1.5750   4.704951 -1.224379 29.827987
625   4 -0.3675   1.812343 -3.372778 26.768688
626   4 -0.3675   2.001623 -3.058922 23.774958
627   4 -0.3675  -1.743932  0.956835 27.702556
628   4 -0.3675   2.851214  1.161305 27.428108
629   4 -0.3675  -0.347903 -3.384081 25.364183
630   4 -0.3675   4.326740 -3.042470 25.287394
631   4 -0.3675  -1.675577 -3.403437 30.808571
632   4 -0.3675   2.809422 -3.308817 30.545640