Generated by pymatgen.io.lammps.data.LammpsData

3625  atoms

   4  atom types

0.000000 27.046030  xlo xhi
0.000000 31.754985  ylo yhi
0.000000 61.874740  zlo zhi
-11.842060 -10.069765 -9.446500  xy xz yz

Masses

1    6.941000
2  238.028910
3   30.973762
4   15.999400

Atoms

1     1  0.5250  -0.452727  5.524145  2.338642
2     1  0.5250  -2.466680  3.634845 14.713590
3     1  0.5250  -4.480633  1.745545 27.088538
4     1  0.5250  -6.494586 -0.143755 39.463486
5     1  0.5250  -8.508539 -2.033055 51.838434
6     1  0.5250  -2.821139 11.875142  2.338642
7     1  0.5250  -4.835092  9.985842 14.713590
8     1  0.5250  -6.849045  8.096542 27.088538
9     1  0.5250  -8.862998  6.207242 39.463486
10    1  0.5250 -10.876951  4.317942 51.838434
11    1  0.5250  -5.189551 18.226139  2.338642
12    1  0.5250  -7.203504 16.336839 14.713590
13    1  0.5250  -9.217457 14.447539 27.088538
14    1  0.5250 -11.231410 12.558239 39.463486
15    1  0.5250 -13.245363 10.668939 51.838434
16    1  0.5250  -7.557963 24.577136  2.338642
17    1  0.5250  -9.571916 22.687836 14.713590
18    1  0.5250 -11.585869 20.798536 27.088538
19    1  0.5250 -13.599822 18.909236 39.463486
20    1  0.5250 -15.613775 17.019936 51.838434
21    1  0.5250  -9.926375 30.928133  2.338642
22    1  0.5250 -11.940328 29.038833 14.713590
23    1  0.5250 -13.954281 27.149533 27.088538
24    1  0.5250 -15.968234 25.260233 39.463486
25    1  0.5250 -17.982187 23.370933 51.838434
26    1  0.5250   4.956479  5.524145  2.338642
27    1  0.5250   2.942526  3.634845 14.713590
28    1  0.5250   0.928573  1.745545 27.088538
29    1  0.5250  -1.085380 -0.143755 39.463486
30    1  0.5250  -3.099333 -2.033055 51.838434
31    1  0.5250   2.588067 11.875142  2.338642
32    1  0.5250   0.574114  9.985842 14.713590
33    1  0.5250  -1.439839  8.096542 27.088538
34    1  0.5250  -3.453792  6.207242 39.463486
35    1  0.5250  -5.467745  4.317942 51.838434
36    1  0.5250   0.219655 18.226139  2.338642
37    1  0.5250  -1.794298 16.336839 14.713590
38    1  0.5250  -3.808251 14.447539 27.088538
39    1  0.5250  -5.822204 12.558239 39.463486
40    1  0.5250  -7.836157 10.668939 51.838434
41    1  0.5250  -2.148757 24.577136  2.338642
42    1  0.5250  -4.162710 22.687836 14.713590
43    1  0.5250  -6.176663 20.798536 27.088538
44    1  0.5250  -8.190616 18.909236 39.463486
45    1  0.5250 -10.204569 17.019936 51.838434
46    1  0.5250  -4.517169 30.928133  2.338642
47    1  0.5250  -6.531122 29.038833 14.713590
48    1  0.5250  -8.545075 27.149533 27.088538
49    1  0.5250 -10.559028 25.260233 39.463486
50    1  0.5250 -12.572981 23.370933 51.838434
51    1  0.5250  10.365685  5.524145  2.338642
52    1  0.5250   8.351732  3.634845 14.713590
53    1  0.5250   6.337779  1.745545 27.088538
54    1  0.5250   4.323826 -0.143755 39.463486
55    1  0.5250   2.309873 -2.033055 51.838434
56    1  0.5250   7.997273 11.875142  2.338642
57    1  0.5250   5.983320  9.985842 14.713590
58    1  0.5250   3.969367  8.096542 27.088538
59    1  0.5250   1.955414  6.207242 39.463486
60    1  0.5250  -0.058539  4.317942 51.838434
61    1  0.5250   5.628861 18.226139  2.338642
62    1  0.5250   3.614908 16.336839 14.713590
63    1  0.5250   1.600955 14.447539 27.088538
64    1  0.5250  -0.412998 12.558239 39.463486
65    1  0.5250  -2.426951 10.668939 51.838434
66    1  0.5250   3.260449 24.577136  2.338642
67    1  0.5250   1.246496 22.687836 14.713590
68    1  0.5250  -0.767457 20.798536 27.088538
69    1  0.5250  -2.781410 18.909236 39.463486
70    1  0.5250  -4.795363 17.019936 51.838434
71    1  0.5250   0.892037 30.928133  2.338642
72    1  0.5250  -1.121916 29.038833 14.713590
73    1  0.5250  -3.135869 27.149533 27.088538
74    1  0.5250  -5.149822 25.260233 39.463486
75    1  0.5250  -7.163775 23.370933 51.838434
76    1  0.5250  15.774891  5.524145  2.338642
77    1  0.5250  13.760938  3.634845 14.713590
78    1  0.5250  11.746985  1.745545 27.088538
79    1  0.5250   9.733032 -0.143755 39.463486
80    1  0.5250   7.719079 -2.033055 51.838434
81    1  0.5250  13.406479 11.875142  2.338642
82    1  0.5250  11.392526  9.985842 14.713590
83    1  0.5250   9.378573  8.096542 27.088538
84    1  0.5250   7.364620  6.207242 39.463486
85    1  0.5250   5.350667  4.317942 51.838434
86    1  0.5250  11.038067 18.226139  2.338642
87    1  0.5250   9.024114 16.336839 14.713590
88    1  0.5250   7.010161 14.447539 27.088538
89    1  0.5250   4.996208 12.558239 39.463486
90    1  0.5250   2.982255 10.668939 51.838434
91    1  0.5250   8.669655 24.577136  2.338642
92    1  0.5250   6.655702 22.687836 14.713590
93    1  0.5250   4.641749 20.798536 27.088538
94    1  0.5250   2.627796 18.909236 39.463486
95    1  0.5250   0.613843 17.019936 51.838434
96    1  0.5250   6.301243 30.928133  2.338642
97    1  0.5250   4.287290 29.038833 14.713590
98    1  0.5250   2.273337 27.149533 27.088538
99    1  0.5250   0.259384 25.260233 39.463486
100   1  0.5250  -1.754569 23.370933 51.838434
101   1  0.5250  21.184097  5.524145  2.338642
102   1  0.5250  19.170144  3.634845 14.713590
103   1  0.5250  17.156191  1.745545 27.088538
104   1  0.5250  15.142238 -0.143755 39.463486
105   1  0.5250  13.128285 -2.033055 51.838434
106   1  0.5250  18.815685 11.875142  2.338642
107   1  0.5250  16.801732  9.985842 14.713590
108   1  0.5250  14.787779  8.096542 27.088538
109   1  0.5250  12.773826  6.207242 39.463486
110   1  0.5250  10.759873  4.317942 51.838434
111   1  0.5250  16.447273 18.226139  2.338642
112   1  0.5250  14.433320 16.336839 14.713590
113   1  0.5250  12.419367 14.447539 27.088538
114   1  0.5250  10.405414 12.558239 39.463486
115   1  0.5250   8.391461 10.668939 51.838434
116   1  0.5250  14.078861 24.577136  2.338642
117   1  0.5250  12.064908 22.687836 14.713590
118   1  0.5250  10.050955 20.798536 27.088538
119   1  0.5250   8.037002 18.909236 39.463486
120   1  0.5250   6.023049 17.019936 51.838434
121   1  0.5250  11.710449 30.928133  2.338642
122   1  0.5250   9.696496 29.038833 14.713590
123   1  0.5250   7.682543 27.149533 27.088538
124   1  0.5250   5.668590 25.260233 39.463486
125   1  0.5250   3.654637 23.370933 51.838434
126   1  0.5250   1.479568 -1.062448 10.036306
127   1  0.5250  -0.534385 -2.951748 22.411254
128   1  0.5250  -2.548338 -4.841048 34.786202
129   1  0.5250  -4.562291 -6.730348 47.161150
130   1  0.5250  -6.576244 -8.619648 59.536098
131   1  0.5250  -0.888844  5.288549 10.036306
132   1  0.5250  -2.902797  3.399249 22.411254
133   1  0.5250  -4.916750  1.509949 34.786202
134   1  0.5250  -6.930703 -0.379351 47.161150
135   1  0.5250  -8.944656 -2.268651 59.536098
136   1  0.5250  -3.257256 11.639546 10.036306
137   1  0.5250  -5.271209  9.750246 22.411254
138   1  0.5250  -7.285162  7.860946 34.786202
139   1  0.5250  -9.299115  5.971646 47.161150
140   1  0.5250 -11.313068  4.082346 59.536098
141   1  0.5250  -5.625668 17.990543 10.036306
142   1  0.5250  -7.639621 16.101243 22.411254
143   1  0.5250  -9.653574 14.211943 34.786202
144   1  0.5250 -11.667527 12.322643 47.161150
145   1  0.5250 -13.681480 10.433343 59.536098
146   1  0.5250  -7.994080 24.341540 10.036306
147   1  0.5250 -10.008033 22.452240 22.411254
148   1  0.5250 -12.021986 20.562940 34.786202
149   1  0.5250 -14.035939 18.673640 47.161150
150   1  0.5250 -16.049892 16.784340 59.536098
151   1  0.5250   6.888774 -1.062448 10.036306
152   1  0.5250   4.874821 -2.951748 22.411254
153   1  0.5250   2.860868 -4.841048 34.786202
154   1  0.5250   0.846915 -6.730348 47.161150
155   1  0.5250  -1.167038 -8.619648 59.536098
156   1  0.5250   4.520362  5.288549 10.036306
157   1  0.5250   2.506409  3.399249 22.411254
158   1  0.5250   0.492456  1.509949 34.786202
159   1  0.5250  -1.521497 -0.379351 47.161150
160   1  0.5250  -3.535450 -2.268651 59.536098
161   1  0.5250   2.151950 11.639546 10.036306
162   1  0.5250   0.137997  9.750246 22.411254
163   1  0.5250  -1.875956  7.860946 34.786202
164   1  0.5250  -3.889909  5.971646 47.161150
165   1  0.5250  -5.903862  4.082346 59.536098
166   1  0.5250  -0.216462 17.990543 10.036306
167   1  0.5250  -2.230415 16.101243 22.411254
168   1  0.5250  -4.244368 14.211943 34.786202
169   1  0.5250  -6.258321 12.322643 47.161150
170   1  0.5250  -8.272274 10.433343 59.536098
171   1  0.5250  -2.584874 24.341540 10.036306
172   1  0.5250  -4.598827 22.452240 22.411254
173   1  0.5250  -6.612780 20.562940 34.786202
174   1  0.5250  -8.626733 18.673640 47.161150
175   1  0.5250 -10.640686 16.784340 59.536098
176   1  0.5250  12.297980 -1.062448 10.036306
177   1  0.5250  10.284027 -2.951748 22.411254
178   1  0.5250   8.270074 -4.841048 34.786202
179   1  0.5250   6.256121 -6.730348 47.161150
180   1  0.5250   4.242168 -8.619648 59.536098
181   1  0.5250   9.929568  5.288549 10.036306
182   1  0.5250   7.915615  3.399249 22.411254
183   1  0.5250   5.901662  1.509949 34.786202
184   1  0.5250   3.887709 -0.379351 47.161150
185   1  0.5250   1.873756 -2.268651 59.536098
186   1  0.5250   7.561156 11.639546 10.036306
187   1  0.5250   5.547203  9.750246 22.411254
188   1  0.5250   3.533250  7.860946 34.786202
189   1  0.5250   1.519297  5.971646 47.161150
190   1  0.5250  -0.494656  4.082346 59.536098
191   1  0.5250   5.192744 17.990543 10.036306
192   1  0.5250   3.178791 16.101243 22.411254
193   1  0.5250   1.164838 14.211943 34.786202
194   1  0.5250  -0.849115 12.322643 47.161150
195   1  0.5250  -2.863068 10.433343 59.536098
196   1  0.5250   2.824332 24.341540 10.036306
197   1  0.5250   0.810379 22.452240 22.411254
198   1  0.5250  -1.203574 20.562940 34.786202
199   1  0.5250  -3.217527 18.673640 47.161150
200   1  0.5250  -5.231480 16.784340 59.536098
201   1  0.5250  17.707186 -1.062448 10.036306
202   1  0.5250  15.693233 -2.951748 22.411254
203   1  0.5250  13.679280 -4.841048 34.786202
204   1  0.5250  11.665327 -6.730348 47.161150
205   1  0.5250   9.651374 -8.619648 59.536098
206   1  0.5250  15.338774  5.288549 10.036306
207   1  0.5250  13.324821  3.399249 22.411254
208   1  0.5250  11.310868  1.509949 34.786202
209   1  0.5250   9.296915 -0.379351 47.161150
210   1  0.5250   7.282962 -2.268651 59.536098
211   1  0.5250  12.970362 11.639546 10.036306
212   1  0.5250  10.956409  9.750246 22.411254
213   1  0.5250   8.942456  7.860946 34.786202
214   1  0.5250   6.928503  5.971646 47.161150
215   1  0.5250   4.914550  4.082346 59.536098
216   1  0.5250  10.601950 17.990543 10.036306
217   1  0.5250   8.587997 16.101243 22.411254
218   1  0.5250   6.574044 14.211943 34.786202
219   1  0.5250   4.560091 12.322643 47.161150
220   1  0.5250   2.546138 10.433343 59.536098
221   1  0.5250   8.233538 24.341540 10.036306
222   1  0.5250   6.219585 22.452240 22.411254
223   1  0.5250   4.205632 20.562940 34.786202
224   1  0.5250   2.191679 18.673640 47.161150
225   1  0.5250   0.177726 16.784340 59.536098
226   1  0.5250  23.116392 -1.062448 10.036306
227   1  0.5250  21.102439 -2.951748 22.411254
228   1  0.5250  19.088486 -4.841048 34.786202
229   1  0.5250  17.074533 -6.730348 47.161150
230   1  0.5250  15.060580 -8.619648 59.536098
231   1  0.5250  20.747980  5.288549 10.036306
232   1  0.5250  18.734027  3.399249 22.411254
233   1  0.5250  16.720074  1.509949 34.786202
234   1  0.5250  14.706121 -0.379351 47.161150
235   1  0.5250  12.692168 -2.268651 59.536098
236   1  0.5250  18.379568 11.639546 10.036306
237   1  0.5250  16.365615  9.750246 22.411254
238   1  0.5250  14.351662  7.860946 34.786202
239   1  0.5250  12.337709  5.971646 47.161150
240   1  0.5250  10.323756  4.082346 59.536098
241   1  0.5250  16.011156 17.990543 10.036306
242   1  0.5250  13.997203 16.101243 22.411254
243   1  0.5250  11.983250 14.211943 34.786202
244   1  0.5250   9.969297 12.322643 47.161150
245   1  0.5250   7.955344 10.433343 59.536098
246   1  0.5250  13.642744 24.341540 10.036306
247   1  0.5250  11.628791 22.452240 22.411254
248   1  0.5250   9.614838 20.562940 34.786202
249   1  0.5250   7.600885 18.673640 47.161150
250   1  0.5250   5.586932 16.784340 59.536098
251   2 -0.0000   1.504114  4.158398  7.814606
252   2 -0.0000  -0.509839  2.269098 20.189554
253   2 -0.0000  -2.523792  0.379798 32.564502
254   2 -0.0000  -4.537745 -1.509502 44.939450
255   2 -0.0000  -6.551698 -3.398802 57.314398
256   2 -0.0000  -0.864298 10.509395  7.814606
257   2 -0.0000  -2.878251  8.620095 20.189554
258   2 -0.0000  -4.892204  6.730795 32.564502
259   2 -0.0000  -6.906157  4.841495 44.939450
260   2 -0.0000  -8.920110  2.952195 57.314398
261   2 -0.0000  -3.232710 16.860392  7.814606
262   2 -0.0000  -5.246663 14.971092 20.189554
263   2 -0.0000  -7.260616 13.081792 32.564502
264   2 -0.0000  -9.274569 11.192492 44.939450
265   2 -0.0000 -11.288522  9.303192 57.314398
266   2 -0.0000  -5.601122 23.211389  7.814606
267   2 -0.0000  -7.615075 21.322089 20.189554
268   2 -0.0000  -9.629028 19.432789 32.564502
269   2 -0.0000 -11.642981 17.543489 44.939450
270   2 -0.0000 -13.656934 15.654189 57.314398
271   2 -0.0000  -7.969534 29.562386  7.814606
272   2 -0.0000  -9.983487 27.673086 20.189554
273   2 -0.0000 -11.997440 25.783786 32.564502
274   2 -0.0000 -14.011393 23.894486 44.939450
275   2 -0.0000 -16.025346 22.005186 57.314398
276   2 -0.0000   6.913320  4.158398  7.814606
277   2 -0.0000   4.899367  2.269098 20.189554
278   2 -0.0000   2.885414  0.379798 32.564502
279   2 -0.0000   0.871461 -1.509502 44.939450
280   2 -0.0000  -1.142492 -3.398802 57.314398
281   2 -0.0000   4.544908 10.509395  7.814606
282   2 -0.0000   2.530955  8.620095 20.189554
283   2 -0.0000   0.517002  6.730795 32.564502
284   2 -0.0000  -1.496951  4.841495 44.939450
285   2 -0.0000  -3.510904  2.952195 57.314398
286   2 -0.0000   2.176496 16.860392  7.814606
287   2 -0.0000   0.162543 14.971092 20.189554
288   2 -0.0000  -1.851410 13.081792 32.564502
289   2 -0.0000  -3.865363 11.192492 44.939450
290   2 -0.0000  -5.879316  9.303192 57.314398
291   2 -0.0000  -0.191916 23.211389  7.814606
292   2 -0.0000  -2.205869 21.322089 20.189554
293   2 -0.0000  -4.219822 19.432789 32.564502
294   2 -0.0000  -6.233775 17.543489 44.939450
295   2 -0.0000  -8.247728 15.654189 57.314398
296   2 -0.0000  -2.560328 29.562386  7.814606
297   2 -0.0000  -4.574281 27.673086 20.189554
298   2 -0.0000  -6.588234 25.783786 32.564502
299   2 -0.0000  -8.602187 23.894486 44.939450
300   2 -0.0000 -10.616140 22.005186 57.314398
301   2 -0.0000  12.322526  4.158398  7.814606
302   2 -0.0000  10.308573  2.269098 20.189554
303   2 -0.0000   8.294620  0.379798 32.564502
304   2 -0.0000   6.280667 -1.509502 44.939450
305   2 -0.0000   4.266714 -3.398802 57.314398
306   2 -0.0000   9.954114 10.509395  7.814606
307   2 -0.0000   7.940161  8.620095 20.189554
308   2 -0.0000   5.926208  6.730795 32.564502
309   2 -0.0000   3.912255  4.841495 44.939450
310   2 -0.0000   1.898302  2.952195 57.314398
311   2 -0.0000   7.585702 16.860392  7.814606
312   2 -0.0000   5.571749 14.971092 20.189554
313   2 -0.0000   3.557796 13.081792 32.564502
314   2 -0.0000   1.543843 11.192492 44.939450
315   2 -0.0000  -0.470110  9.303192 57.314398
316   2 -0.0000   5.217290 23.211389  7.814606
317   2 -0.0000   3.203337 21.322089 20.189554
318   2 -0.0000   1.189384 19.432789 32.564502
319   2 -0.0000  -0.824569 17.543489 44.939450
320   2 -0.0000  -2.838522 15.654189 57.314398
321   2 -0.0000   2.848878 29.562386  7.814606
322   2 -0.0000   0.834925 27.673086 20.189554
323   2 -0.0000  -1.179028 25.783786 32.564502
324   2 -0.0000  -3.192981 23.894486 44.939450
325   2 -0.0000  -5.206934 22.005186 57.314398
326   2 -0.0000  17.731732  4.158398  7.814606
327   2 -0.0000  15.717779  2.269098 20.189554
328   2 -0.0000  13.703826  0.379798 32.564502
329   2 -0.0000  11.689873 -1.509502 44.939450
330   2 -0.0000   9.675920 -3.398802 57.314398
331   2 -0.0000  15.363320 10.509395  7.814606
332   2 -0.0000  13.349367  8.620095 20.189554
333   2 -0.0000  11.335414  6.730795 32.564502
334   2 -0.0000   9.321461  4.841495 44.939450
335   2 -0.0000   7.307508  2.952195 57.314398
336   2 -0.0000  12.994908 16.860392  7.814606
337   2 -0.0000  10.980955 14.971092 20.189554
338   2 -0.0000   8.967002 13.081792 32.564502
339   2 -0.0000   6.953049 11.192492 44.939450
340   2 -0.0000   4.939096  9.303192 57.314398
341   2 -0.0000  10.626496 23.211389  7.814606
342   2 -0.0000   8.612543 21.322089 20.189554
343   2 -0.0000   6.598590 19.432789 32.564502
344   2 -0.0000   4.584637 17.543489 44.939450
345   2 -0.0000   2.570684 15.654189 57.314398
346   2 -0.0000   8.258084 29.562386  7.814606
347   2 -0.0000   6.244131 27.673086 20.189554
348   2 -0.0000   4.230178 25.783786 32.564502
349   2 -0.0000   2.216225 23.894486 44.939450
350   2 -0.0000   0.202272 22.005186 57.314398
351   2 -0.0000  23.140938  4.158398  7.814606
352   2 -0.0000  21.126985  2.269098 20.189554
353   2 -0.0000  19.113032  0.379798 32.564502
354   2 -0.0000  17.099079 -1.509502 44.939450
355   2 -0.0000  15.085126 -3.398802 57.314398
356   2 -0.0000  20.772526 10.509395  7.814606
357   2 -0.0000  18.758573  8.620095 20.189554
358   2 -0.0000  16.744620  6.730795 32.564502
359   2 -0.0000  14.730667  4.841495 44.939450
360   2 -0.0000  12.716714  2.952195 57.314398
361   2 -0.0000  18.404114 16.860392  7.814606
362   2 -0.0000  16.390161 14.971092 20.189554
363   2 -0.0000  14.376208 13.081792 32.564502
364   2 -0.0000  12.362255 11.192492 44.939450
365   2 -0.0000  10.348302  9.303192 57.314398
366   2 -0.0000  16.035702 23.211389  7.814606
367   2 -0.0000  14.021749 21.322089 20.189554
368   2 -0.0000  12.007796 19.432789 32.564502
369   2 -0.0000   9.993843 17.543489 44.939450
370   2 -0.0000   7.979890 15.654189 57.314398
371   2 -0.0000  13.667290 29.562386  7.814606
372   2 -0.0000  11.653337 27.673086 20.189554
373   2 -0.0000   9.639384 25.783786 32.564502
374   2 -0.0000   7.625431 23.894486 44.939450
375   2 -0.0000   5.611478 22.005186 57.314398
376   2 -0.0000  -0.477273  0.303299  4.560342
377   2 -0.0000  -2.491226 -1.586001 16.935290
378   2 -0.0000  -4.505179 -3.475301 29.310238
379   2 -0.0000  -6.519132 -5.364601 41.685186
380   2 -0.0000  -8.533085 -7.253901 54.060134
381   2 -0.0000  -2.845685  6.654296  4.560342
382   2 -0.0000  -4.859638  4.764996 16.935290
383   2 -0.0000  -6.873591  2.875696 29.310238
384   2 -0.0000  -8.887544  0.986396 41.685186
385   2 -0.0000 -10.901497 -0.902904 54.060134
386   2 -0.0000  -5.214097 13.005293  4.560342
387   2 -0.0000  -7.228050 11.115993 16.935290
388   2 -0.0000  -9.242003  9.226693 29.310238
389   2 -0.0000 -11.255956  7.337393 41.685186
390   2 -0.0000 -13.269909  5.448093 54.060134
391   2 -0.0000  -7.582509 19.356290  4.560342
392   2 -0.0000  -9.596462 17.466990 16.935290
393   2 -0.0000 -11.610415 15.577690 29.310238
394   2 -0.0000 -13.624368 13.688390 41.685186
395   2 -0.0000 -15.638321 11.799090 54.060134
396   2 -0.0000  -9.950921 25.707287  4.560342
397   2 -0.0000 -11.964874 23.817987 16.935290
398   2 -0.0000 -13.978827 21.928687 29.310238
399   2 -0.0000 -15.992780 20.039387 41.685186
400   2 -0.0000 -18.006733 18.150087 54.060134
401   2 -0.0000   4.931933  0.303299  4.560342
402   2 -0.0000   2.917980 -1.586001 16.935290
403   2 -0.0000   0.904027 -3.475301 29.310238
404   2 -0.0000  -1.109926 -5.364601 41.685186
405   2 -0.0000  -3.123879 -7.253901 54.060134
406   2 -0.0000   2.563521  6.654296  4.560342
407   2 -0.0000   0.549568  4.764996 16.935290
408   2 -0.0000  -1.464385  2.875696 29.310238
409   2 -0.0000  -3.478338  0.986396 41.685186
410   2 -0.0000  -5.492291 -0.902904 54.060134
411   2 -0.0000   0.195109 13.005293  4.560342
412   2 -0.0000  -1.818844 11.115993 16.935290
413   2 -0.0000  -3.832797  9.226693 29.310238
414   2 -0.0000  -5.846750  7.337393 41.685186
415   2 -0.0000  -7.860703  5.448093 54.060134
416   2 -0.0000  -2.173303 19.356290  4.560342
417   2 -0.0000  -4.187256 17.466990 16.935290
418   2 -0.0000  -6.201209 15.577690 29.310238
419   2 -0.0000  -8.215162 13.688390 41.685186
420   2 -0.0000 -10.229115 11.799090 54.060134
421   2 -0.0000  -4.541715 25.707287  4.560342
422   2 -0.0000  -6.555668 23.817987 16.935290
423   2 -0.0000  -8.569621 21.928687 29.310238
424   2 -0.0000 -10.583574 20.039387 41.685186
425   2 -0.0000 -12.597527 18.150087 54.060134
426   2 -0.0000  10.341139  0.303299  4.560342
427   2 -0.0000   8.327186 -1.586001 16.935290
428   2 -0.0000   6.313233 -3.475301 29.310238
429   2 -0.0000   4.299280 -5.364601 41.685186
430   2 -0.0000   2.285327 -7.253901 54.060134
431   2 -0.0000   7.972727  6.654296  4.560342
432   2 -0.0000   5.958774  4.764996 16.935290
433   2 -0.0000   3.944821  2.875696 29.310238
434   2 -0.0000   1.930868  0.986396 41.685186
435   2 -0.0000  -0.083085 -0.902904 54.060134
436   2 -0.0000   5.604315 13.005293  4.560342
437   2 -0.0000   3.590362 11.115993 16.935290
438   2 -0.0000   1.576409  9.226693 29.310238
439   2 -0.0000  -0.437544  7.337393 41.685186
440   2 -0.0000  -2.451497  5.448093 54.060134
441   2 -0.0000   3.235903 19.356290  4.560342
442   2 -0.0000   1.221950 17.466990 16.935290
443   2 -0.0000  -0.792003 15.577690 29.310238
444   2 -0.0000  -2.805956 13.688390 41.685186
445   2 -0.0000  -4.819909 11.799090 54.060134
446   2 -0.0000   0.867491 25.707287  4.560342
447   2 -0.0000  -1.146462 23.817987 16.935290
448   2 -0.0000  -3.160415 21.928687 29.310238
449   2 -0.0000  -5.174368 20.039387 41.685186
450   2 -0.0000  -7.188321 18.150087 54.060134
451   2 -0.0000  15.750345  0.303299  4.560342
452   2 -0.0000  13.736392 -1.586001 16.935290
453   2 -0.0000  11.722439 -3.475301 29.310238
454   2 -0.0000   9.708486 -5.364601 41.685186
455   2 -0.0000   7.694533 -7.253901 54.060134
456   2 -0.0000  13.381933  6.654296  4.560342
457   2 -0.0000  11.367980  4.764996 16.935290
458   2 -0.0000   9.354027  2.875696 29.310238
459   2 -0.0000   7.340074  0.986396 41.685186
460   2 -0.0000   5.326121 -0.902904 54.060134
461   2 -0.0000  11.013521 13.005293  4.560342
462   2 -0.0000   8.999568 11.115993 16.935290
463   2 -0.0000   6.985615  9.226693 29.310238
464   2 -0.0000   4.971662  7.337393 41.685186
465   2 -0.0000   2.957709  5.448093 54.060134
466   2 -0.0000   8.645109 19.356290  4.560342
467   2 -0.0000   6.631156 17.466990 16.935290
468   2 -0.0000   4.617203 15.577690 29.310238
469   2 -0.0000   2.603250 13.688390 41.685186
470   2 -0.0000   0.589297 11.799090 54.060134
471   2 -0.0000   6.276697 25.707287  4.560342
472   2 -0.0000   4.262744 23.817987 16.935290
473   2 -0.0000   2.248791 21.928687 29.310238
474   2 -0.0000   0.234838 20.039387 41.685186
475   2 -0.0000  -1.779115 18.150087 54.060134
476   2 -0.0000  21.159551  0.303299  4.560342
477   2 -0.0000  19.145598 -1.586001 16.935290
478   2 -0.0000  17.131645 -3.475301 29.310238
479   2 -0.0000  15.117692 -5.364601 41.685186
480   2 -0.0000  13.103739 -7.253901 54.060134
481   2 -0.0000  18.791139  6.654296  4.560342
482   2 -0.0000  16.777186  4.764996 16.935290
483   2 -0.0000  14.763233  2.875696 29.310238
484   2 -0.0000  12.749280  0.986396 41.685186
485   2 -0.0000  10.735327 -0.902904 54.060134
486   2 -0.0000  16.422727 13.005293  4.560342
487   2 -0.0000  14.408774 11.115993 16.935290
488   2 -0.0000  12.394821  9.226693 29.310238
489   2 -0.0000  10.380868  7.337393 41.685186
490   2 -0.0000   8.366915  5.448093 54.060134
491   2 -0.0000  14.054315 19.356290  4.560342
492   2 -0.0000  12.040362 17.466990 16.935290
493   2 -0.0000  10.026409 15.577690 29.310238
494   2 -0.0000   8.012456 13.688390 41.685186
495   2 -0.0000   5.998503 11.799090 54.060134
496   2 -0.0000  11.685903 25.707287  4.560342
497   2 -0.0000   9.671950 23.817987 16.935290
498   2 -0.0000   7.657997 21.928687 29.310238
499   2 -0.0000   5.644044 20.039387 41.685186
500   2 -0.0000   3.630091 18.150087 54.060134
501   2 -0.0000  25.861824  3.175498  0.000000
502   2 -0.0000  23.847871  1.286198 12.374948
503   2 -0.0000  21.833918 -0.603102 24.749896
504   2 -0.0000  19.819965 -2.492402 37.124844
505   2 -0.0000  17.806012 -4.381702 49.499792
506   2 -0.0000  23.493412  9.526495  0.000000
507   2 -0.0000  -5.566571  7.637195 12.374948
508   2 -0.0000  -7.580524  5.747896 24.749896
509   2 -0.0000  17.451553  3.858595 37.124844
510   2 -0.0000  15.437600  1.969296 49.499792
511   2 -0.0000  -5.921030 15.877492  0.000000
512   2 -0.0000  19.111047 13.988192 12.374948
513   2 -0.0000  -9.948936 12.098892 24.749896
514   2 -0.0000 -11.962889 10.209592 37.124844
515   2 -0.0000  13.069188  8.320292 49.499792
516   2 -0.0000  -8.289442 22.228490  0.000000
517   2 -0.0000 -10.303395 20.339190 12.374948
518   2 -0.0000 -12.317348 18.449890 24.749896
519   2 -0.0000 -14.331301 16.560589 37.124844
520   2 -0.0000  10.700776 14.671290 49.499792
521   2 -0.0000 -10.657854 28.579486  0.000000
522   2 -0.0000 -12.671807 26.690186 12.374948
523   2 -0.0000  12.360270 24.800886 24.749896
524   2 -0.0000  10.346317 22.911586 37.124844
525   2 -0.0000 -18.713666 21.022286 49.499792
526   2 -0.0000   4.225000  3.175498  0.000000
527   2 -0.0000   2.211047  1.286198 12.374948
528   2 -0.0000   0.197094 -0.603102 24.749896
529   2 -0.0000  -1.816859 -2.492402 37.124844
530   2 -0.0000  -3.830812 -4.381702 49.499792
531   2 -0.0000   1.856588  9.526495  0.000000
532   2 -0.0000  -0.157365  7.637195 12.374948
533   2 -0.0000  -2.171318  5.747896 24.749896
534   2 -0.0000  -4.185271  3.858595 37.124844
535   2 -0.0000  -6.199224  1.969296 49.499792
536   2 -0.0000  -0.511824 15.877492  0.000000
537   2 -0.0000  -2.525777 13.988192 12.374948
538   2 -0.0000  -4.539730 12.098892 24.749896
539   2 -0.0000  -6.553683 10.209592 37.124844
540   2 -0.0000  -8.567636  8.320292 49.499792
541   2 -0.0000  -2.880236 22.228490  0.000000
542   2 -0.0000  -4.894189 20.339190 12.374948
543   2 -0.0000  -6.908142 18.449890 24.749896
544   2 -0.0000  -8.922095 16.560589 37.124844
545   2 -0.0000 -10.936048 14.671290 49.499792
546   2 -0.0000  -5.248648 28.579486  0.000000
547   2 -0.0000  -7.262601 26.690186 12.374948
548   2 -0.0000  -9.276554 24.800886 24.749896
549   2 -0.0000 -11.290507 22.911586 37.124844
550   2 -0.0000 -13.304460 21.022286 49.499792
551   2 -0.0000   9.634206  3.175498  0.000000
552   2 -0.0000   7.620253  1.286198 12.374948
553   2 -0.0000   5.606300 -0.603102 24.749896
554   2 -0.0000   3.592347 -2.492402 37.124844
555   2 -0.0000   1.578394 -4.381702 49.499792
556   2 -0.0000   7.265794  9.526495  0.000000
557   2 -0.0000   5.251841  7.637195 12.374948
558   2 -0.0000   3.237888  5.747896 24.749896
559   2 -0.0000   1.223935  3.858595 37.124844
560   2 -0.0000  -0.790018  1.969296 49.499792
561   2 -0.0000   4.897382 15.877492  0.000000
562   2 -0.0000   2.883429 13.988192 12.374948
563   2 -0.0000   0.869476 12.098892 24.749896
564   2 -0.0000  -1.144477 10.209592 37.124844
565   2 -0.0000  -3.158430  8.320292 49.499792
566   2 -0.0000   2.528970 22.228490  0.000000
567   2 -0.0000   0.515017 20.339190 12.374948
568   2 -0.0000  -1.498936 18.449890 24.749896
569   2 -0.0000  -3.512889 16.560589 37.124844
570   2 -0.0000  -5.526842 14.671290 49.499792
571   2 -0.0000   0.160558 28.579486  0.000000
572   2 -0.0000  -1.853395 26.690186 12.374948
573   2 -0.0000  -3.867348 24.800886 24.749896
574   2 -0.0000  -5.881301 22.911586 37.124844
575   2 -0.0000  -7.895254 21.022286 49.499792
576   2 -0.0000  15.043412  3.175498  0.000000
577   2 -0.0000  13.029459  1.286198 12.374948
578   2 -0.0000  11.015506 -0.603102 24.749896
579   2 -0.0000   9.001553 -2.492402 37.124844
580   2 -0.0000   6.987600 -4.381702 49.499792
581   2 -0.0000  12.675000  9.526495  0.000000
582   2 -0.0000  10.661047  7.637195 12.374948
583   2 -0.0000   8.647094  5.747896 24.749896
584   2 -0.0000   6.633141  3.858595 37.124844
585   2 -0.0000   4.619188  1.969296 49.499792
586   2 -0.0000  10.306588 15.877492  0.000000
587   2 -0.0000   8.292635 13.988192 12.374948
588   2 -0.0000   6.278682 12.098892 24.749896
589   2 -0.0000   4.264729 10.209592 37.124844
590   2 -0.0000   2.250776  8.320292 49.499792
591   2 -0.0000   7.938176 22.228490  0.000000
592   2 -0.0000   5.924223 20.339190 12.374948
593   2 -0.0000   3.910270 18.449890 24.749896
594   2 -0.0000   1.896317 16.560589 37.124844
595   2 -0.0000  -0.117636 14.671290 49.499792
596   2 -0.0000   5.569764 28.579486  0.000000
597   2 -0.0000   3.555811 26.690186 12.374948
598   2 -0.0000   1.541858 24.800886 24.749896
599   2 -0.0000  -0.472095 22.911586 37.124844
600   2 -0.0000  -2.486048 21.022286 49.499792
601   2 -0.0000  20.452618  3.175498  0.000000
602   2 -0.0000  18.438665  1.286198 12.374948
603   2 -0.0000  16.424712 -0.603102 24.749896
604   2 -0.0000  14.410759 -2.492402 37.124844
605   2 -0.0000  12.396806 -4.381702 49.499792
606   2 -0.0000  18.084206  9.526495  0.000000
607   2 -0.0000  16.070253  7.637195 12.374948
608   2 -0.0000  14.056300  5.747896 24.749896
609   2 -0.0000  12.042347  3.858595 37.124844
610   2 -0.0000  10.028394  1.969296 49.499792
611   2 -0.0000  15.715794 15.877492  0.000000
612   2 -0.0000  13.701841 13.988192 12.374948
613   2 -0.0000  11.687888 12.098892 24.749896
614   2 -0.0000   9.673935 10.209592 37.124844
615   2 -0.0000   7.659982  8.320292 49.499792
616   2 -0.0000  13.347382 22.228490  0.000000
617   2 -0.0000  11.333429 20.339190 12.374948
618   2 -0.0000   9.319476 18.449890 24.749896
619   2 -0.0000   7.305523 16.560589 37.124844
620   2 -0.0000   5.291570 14.671290 49.499792
621   2 -0.0000  10.978970 28.579486  0.000000
622   2 -0.0000   8.965017 26.690186 12.374948
623   2 -0.0000   6.951064 24.800886 24.749896
624   2 -0.0000   4.937111 22.911586 37.124844
625   2 -0.0000   2.923158 21.022286 49.499792
626   3  1.5750   3.297058  0.875959  7.959468
627   3  1.5750   1.283105 -1.013341 20.334416
628   3  1.5750  -0.730848 -2.902641 32.709364
629   3  1.5750  -2.744801 -4.791941 45.084312
630   3  1.5750  -4.758754 -6.681241 57.459260
631   3  1.5750   0.928646  7.226956  7.959468
632   3  1.5750  -1.085307  5.337656 20.334416