Generated by pymatgen.io.lammps.data.LammpsData

5250  atoms

   4  atom types

0.000000 38.499960  xlo xhi
0.000000 38.403545  ylo yhi
0.000000 51.705460  zlo zhi
-18.754125 1.774150 -15.550260  xy xz yz

Masses

1   6.941000
2  54.938045
3  78.960000
4  15.999400

Atoms

1     1  0.5250   4.074360   1.285613  9.613048
2     1  0.5250   4.429190  -1.824439 19.954140
3     1  0.5250   4.784020  -4.934491 30.295232
4     1  0.5250   5.138850  -8.044543 40.636324
5     1  0.5250   5.493680 -11.154595 50.977416
6     1  0.5250   0.323535   8.966322  9.613048
7     1  0.5250   0.678365   5.856270 19.954140
8     1  0.5250   1.033195   2.746218 30.295232
9     1  0.5250   1.388025  -0.363834 40.636324
10    1  0.5250   1.742855  -3.473886 50.977416
11    1  0.5250  -3.427290  16.647031  9.613048
12    1  0.5250  -3.072460  13.536979 19.954140
13    1  0.5250  -2.717630  10.426927 30.295232
14    1  0.5250  -2.362800   7.316875 40.636324
15    1  0.5250  -2.007970   4.206823 50.977416
16    1  0.5250  -7.178115  24.327740  9.613048
17    1  0.5250  -6.823285  21.217688 19.954140
18    1  0.5250  -6.468455  18.107636 30.295232
19    1  0.5250  -6.113625  14.997584 40.636324
20    1  0.5250  -5.758795  11.887532 50.977416
21    1  0.5250 -10.928940  32.008449  9.613048
22    1  0.5250 -10.574110  28.898397 19.954140
23    1  0.5250 -10.219280  25.788345 30.295232
24    1  0.5250  -9.864450  22.678293 40.636324
25    1  0.5250  -9.509620  19.568241 50.977416
26    1  0.5250  11.774352   1.285613  9.613048
27    1  0.5250  12.129182  -1.824439 19.954140
28    1  0.5250  12.484012  -4.934491 30.295232
29    1  0.5250  12.838842  -8.044543 40.636324
30    1  0.5250  13.193672 -11.154595 50.977416
31    1  0.5250   8.023527   8.966322  9.613048
32    1  0.5250   8.378357   5.856270 19.954140
33    1  0.5250   8.733187   2.746218 30.295232
34    1  0.5250   9.088017  -0.363834 40.636324
35    1  0.5250   9.442847  -3.473886 50.977416
36    1  0.5250   4.272702  16.647031  9.613048
37    1  0.5250   4.627532  13.536979 19.954140
38    1  0.5250   4.982362  10.426927 30.295232
39    1  0.5250   5.337192   7.316875 40.636324
40    1  0.5250   5.692022   4.206823 50.977416
41    1  0.5250   0.521877  24.327740  9.613048
42    1  0.5250   0.876707  21.217688 19.954140
43    1  0.5250   1.231537  18.107636 30.295232
44    1  0.5250   1.586367  14.997584 40.636324
45    1  0.5250   1.941197  11.887532 50.977416
46    1  0.5250  -3.228948  32.008449  9.613048
47    1  0.5250  -2.874118  28.898397 19.954140
48    1  0.5250  -2.519288  25.788345 30.295232
49    1  0.5250  -2.164458  22.678293 40.636324
50    1  0.5250  -1.809628  19.568241 50.977416
51    1  0.5250  19.474344   1.285613  9.613048
52    1  0.5250  19.829174  -1.824439 19.954140
53    1  0.5250  20.184004  -4.934491 30.295232
54    1  0.5250  20.538834  -8.044543 40.636324
55    1  0.5250  20.893664 -11.154595 50.977416
56    1  0.5250  15.723519   8.966322  9.613048
57    1  0.5250  16.078349   5.856270 19.954140
58    1  0.5250  16.433179   2.746218 30.295232
59    1  0.5250  16.788009  -0.363834 40.636324
60    1  0.5250  17.142839  -3.473886 50.977416
61    1  0.5250  11.972694  16.647031  9.613048
62    1  0.5250  12.327524  13.536979 19.954140
63    1  0.5250  12.682354  10.426927 30.295232
64    1  0.5250  13.037184   7.316875 40.636324
65    1  0.5250  13.392014   4.206823 50.977416
66    1  0.5250   8.221869  24.327740  9.613048
67    1  0.5250   8.576699  21.217688 19.954140
68    1  0.5250   8.931529  18.107636 30.295232
69    1  0.5250   9.286359  14.997584 40.636324
70    1  0.5250   9.641189  11.887532 50.977416
71    1  0.5250   4.471044  32.008449  9.613048
72    1  0.5250   4.825874  28.898397 19.954140
73    1  0.5250   5.180704  25.788345 30.295232
74    1  0.5250   5.535534  22.678293 40.636324
75    1  0.5250   5.890364  19.568241 50.977416
76    1  0.5250  27.174336   1.285613  9.613048
77    1  0.5250  27.529166  -1.824439 19.954140
78    1  0.5250  27.883996  -4.934491 30.295232
79    1  0.5250  28.238826  -8.044543 40.636324
80    1  0.5250  28.593656 -11.154595 50.977416
81    1  0.5250  23.423511   8.966322  9.613048
82    1  0.5250  23.778341   5.856270 19.954140
83    1  0.5250  24.133171   2.746218 30.295232
84    1  0.5250  24.488001  -0.363834 40.636324
85    1  0.5250  24.842831  -3.473886 50.977416
86    1  0.5250  19.672686  16.647031  9.613048
87    1  0.5250  20.027516  13.536979 19.954140
88    1  0.5250  20.382346  10.426927 30.295232
89    1  0.5250  20.737176   7.316875 40.636324
90    1  0.5250  21.092006   4.206823 50.977416
91    1  0.5250  15.921861  24.327740  9.613048
92    1  0.5250  16.276691  21.217688 19.954140
93    1  0.5250  16.631521  18.107636 30.295232
94    1  0.5250  16.986351  14.997584 40.636324
95    1  0.5250  17.341181  11.887532 50.977416
96    1  0.5250  12.171036  32.008449  9.613048
97    1  0.5250  12.525866  28.898397 19.954140
98    1  0.5250  12.880696  25.788345 30.295232
99    1  0.5250  13.235526  22.678293 40.636324
100   1  0.5250  13.590356  19.568241 50.977416
101   1  0.5250  34.874328   1.285613  9.613048
102   1  0.5250  35.229158  -1.824439 19.954140
103   1  0.5250  35.583988  -4.934491 30.295232
104   1  0.5250  35.938818  -8.044543 40.636324
105   1  0.5250  36.293648 -11.154595 50.977416
106   1  0.5250  31.123503   8.966322  9.613048
107   1  0.5250  31.478333   5.856270 19.954140
108   1  0.5250  31.833163   2.746218 30.295232
109   1  0.5250  32.187993  -0.363834 40.636324
110   1  0.5250  32.542823  -3.473886 50.977416
111   1  0.5250  27.372678  16.647031  9.613048
112   1  0.5250  27.727508  13.536979 19.954140
113   1  0.5250  28.082338  10.426927 30.295232
114   1  0.5250  28.437168   7.316875 40.636324
115   1  0.5250  28.791998   4.206823 50.977416
116   1  0.5250  23.621853  24.327740  9.613048
117   1  0.5250  23.976683  21.217688 19.954140
118   1  0.5250  24.331513  18.107636 30.295232
119   1  0.5250  24.686343  14.997584 40.636324
120   1  0.5250  25.041173  11.887532 50.977416
121   1  0.5250  19.871028  32.008449  9.613048
122   1  0.5250  20.225858  28.898397 19.954140
123   1  0.5250  20.580688  25.788345 30.295232
124   1  0.5250  20.935518  22.678293 40.636324
125   1  0.5250  21.290348  19.568241 50.977416
126   1  0.5250   3.095544   2.893726  4.299133
127   1  0.5250   3.450374  -0.216326 14.640225
128   1  0.5250   3.805204  -3.326378 24.981317
129   1  0.5250   4.160034  -6.436430 35.322409
130   1  0.5250   4.514864  -9.546482 45.663501
131   1  0.5250  -0.655281  10.574435  4.299133
132   1  0.5250  -0.300451   7.464383 14.640225
133   1  0.5250   0.054379   4.354331 24.981317
134   1  0.5250   0.409209   1.244279 35.322409
135   1  0.5250   0.764039  -1.865773 45.663501
136   1  0.5250  -4.406106  18.255144  4.299133
137   1  0.5250  -4.051276  15.145092 14.640225
138   1  0.5250  -3.696446  12.035040 24.981317
139   1  0.5250  -3.341616   8.924988 35.322409
140   1  0.5250  -2.986786   5.814936 45.663501
141   1  0.5250  -8.156931  25.935853  4.299133
142   1  0.5250  -7.802101  22.825801 14.640225
143   1  0.5250  -7.447271  19.715749 24.981317
144   1  0.5250  -7.092441  16.605697 35.322409
145   1  0.5250  -6.737611  13.495645 45.663501
146   1  0.5250 -11.907756  33.616562  4.299133
147   1  0.5250 -11.552926  30.506510 14.640225
148   1  0.5250 -11.198096  27.396458 24.981317
149   1  0.5250 -10.843266  24.286406 35.322409
150   1  0.5250 -10.488436  21.176354 45.663501
151   1  0.5250  10.795536   2.893726  4.299133
152   1  0.5250  11.150366  -0.216326 14.640225
153   1  0.5250  11.505196  -3.326378 24.981317
154   1  0.5250  11.860026  -6.436430 35.322409
155   1  0.5250  12.214856  -9.546482 45.663501
156   1  0.5250   7.044711  10.574435  4.299133
157   1  0.5250   7.399541   7.464383 14.640225
158   1  0.5250   7.754371   4.354331 24.981317
159   1  0.5250   8.109201   1.244279 35.322409
160   1  0.5250   8.464031  -1.865773 45.663501
161   1  0.5250   3.293886  18.255144  4.299133
162   1  0.5250   3.648716  15.145092 14.640225
163   1  0.5250   4.003546  12.035040 24.981317
164   1  0.5250   4.358376   8.924988 35.322409
165   1  0.5250   4.713206   5.814936 45.663501
166   1  0.5250  -0.456939  25.935853  4.299133
167   1  0.5250  -0.102109  22.825801 14.640225
168   1  0.5250   0.252721  19.715749 24.981317
169   1  0.5250   0.607551  16.605697 35.322409
170   1  0.5250   0.962381  13.495645 45.663501
171   1  0.5250  -4.207764  33.616562  4.299133
172   1  0.5250  -3.852934  30.506510 14.640225
173   1  0.5250  -3.498104  27.396458 24.981317
174   1  0.5250  -3.143274  24.286406 35.322409
175   1  0.5250  -2.788444  21.176354 45.663501
176   1  0.5250  18.495528   2.893726  4.299133
177   1  0.5250  18.850358  -0.216326 14.640225
178   1  0.5250  19.205188  -3.326378 24.981317
179   1  0.5250  19.560018  -6.436430 35.322409
180   1  0.5250  19.914848  -9.546482 45.663501
181   1  0.5250  14.744703  10.574435  4.299133
182   1  0.5250  15.099533   7.464383 14.640225
183   1  0.5250  15.454363   4.354331 24.981317
184   1  0.5250  15.809193   1.244279 35.322409
185   1  0.5250  16.164023  -1.865773 45.663501
186   1  0.5250  10.993878  18.255144  4.299133
187   1  0.5250  11.348708  15.145092 14.640225
188   1  0.5250  11.703538  12.035040 24.981317
189   1  0.5250  12.058368   8.924988 35.322409
190   1  0.5250  12.413198   5.814936 45.663501
191   1  0.5250   7.243053  25.935853  4.299133
192   1  0.5250   7.597883  22.825801 14.640225
193   1  0.5250   7.952713  19.715749 24.981317
194   1  0.5250   8.307543  16.605697 35.322409
195   1  0.5250   8.662373  13.495645 45.663501
196   1  0.5250   3.492228  33.616562  4.299133
197   1  0.5250   3.847058  30.506510 14.640225
198   1  0.5250   4.201888  27.396458 24.981317
199   1  0.5250   4.556718  24.286406 35.322409
200   1  0.5250   4.911548  21.176354 45.663501
201   1  0.5250  26.195520   2.893726  4.299133
202   1  0.5250  26.550350  -0.216326 14.640225
203   1  0.5250  26.905180  -3.326378 24.981317
204   1  0.5250  27.260010  -6.436430 35.322409
205   1  0.5250  27.614840  -9.546482 45.663501
206   1  0.5250  22.444695  10.574435  4.299133
207   1  0.5250  22.799525   7.464383 14.640225
208   1  0.5250  23.154355   4.354331 24.981317
209   1  0.5250  23.509185   1.244279 35.322409
210   1  0.5250  23.864015  -1.865773 45.663501
211   1  0.5250  18.693870  18.255144  4.299133
212   1  0.5250  19.048700  15.145092 14.640225
213   1  0.5250  19.403530  12.035040 24.981317
214   1  0.5250  19.758360   8.924988 35.322409
215   1  0.5250  20.113190   5.814936 45.663501
216   1  0.5250  14.943045  25.935853  4.299133
217   1  0.5250  15.297875  22.825801 14.640225
218   1  0.5250  15.652705  19.715749 24.981317
219   1  0.5250  16.007535  16.605697 35.322409
220   1  0.5250  16.362365  13.495645 45.663501
221   1  0.5250  11.192220  33.616562  4.299133
222   1  0.5250  11.547050  30.506510 14.640225
223   1  0.5250  11.901880  27.396458 24.981317
224   1  0.5250  12.256710  24.286406 35.322409
225   1  0.5250  12.611540  21.176354 45.663501
226   1  0.5250  33.895512   2.893726  4.299133
227   1  0.5250  34.250342  -0.216326 14.640225
228   1  0.5250  34.605172  -3.326378 24.981317
229   1  0.5250  34.960002  -6.436430 35.322409
230   1  0.5250  35.314832  -9.546482 45.663501
231   1  0.5250  30.144687  10.574435  4.299133
232   1  0.5250  30.499517   7.464383 14.640225
233   1  0.5250  30.854347   4.354331 24.981317
234   1  0.5250  31.209177   1.244279 35.322409
235   1  0.5250  31.564007  -1.865773 45.663501
236   1  0.5250  26.393862  18.255144  4.299133
237   1  0.5250  26.748692  15.145092 14.640225
238   1  0.5250  27.103522  12.035040 24.981317
239   1  0.5250  27.458352   8.924988 35.322409
240   1  0.5250  27.813182   5.814936 45.663501
241   1  0.5250  22.643037  25.935853  4.299133
242   1  0.5250  22.997867  22.825801 14.640225
243   1  0.5250  23.352697  19.715749 24.981317
244   1  0.5250  23.707527  16.605697 35.322409
245   1  0.5250  24.062357  13.495645 45.663501
246   1  0.5250  18.892212  33.616562  4.299133
247   1  0.5250  19.247042  30.506510 14.640225
248   1  0.5250  19.601872  27.396458 24.981317
249   1  0.5250  19.956702  24.286406 35.322409
250   1  0.5250  20.311532  21.176354 45.663501
251   1  0.5250   1.208453   1.676931  6.041959
252   1  0.5250   1.563283  -1.433121 16.383051
253   1  0.5250   1.918113  -4.543173 26.724143
254   1  0.5250   2.272943  -7.653225 37.065235
255   1  0.5250   2.627773 -10.763277 47.406327
256   1  0.5250  -2.542372   9.357640  6.041959
257   1  0.5250  -2.187542   6.247588 16.383051
258   1  0.5250  -1.832712   3.137536 26.724143
259   1  0.5250  -1.477882   0.027484 37.065235
260   1  0.5250  -1.123052  -3.082568 47.406327
261   1  0.5250  -6.293197  17.038349  6.041959
262   1  0.5250  -5.938367  13.928297 16.383051
263   1  0.5250  -5.583537  10.818245 26.724143
264   1  0.5250  -5.228707   7.708193 37.065235
265   1  0.5250  -4.873877   4.598141 47.406327
266   1  0.5250 -10.044022  24.719058  6.041959
267   1  0.5250  -9.689192  21.609006 16.383051
268   1  0.5250  -9.334362  18.498954 26.724143
269   1  0.5250  -8.979532  15.388902 37.065235
270   1  0.5250  -8.624702  12.278850 47.406327
271   1  0.5250 -13.794847  32.399767  6.041959
272   1  0.5250 -13.440017  29.289715 16.383051
273   1  0.5250 -13.085187  26.179663 26.724143
274   1  0.5250 -12.730357  23.069611 37.065235
275   1  0.5250 -12.375527  19.959559 47.406327
276   1  0.5250   8.908445   1.676931  6.041959
277   1  0.5250   9.263275  -1.433121 16.383051
278   1  0.5250   9.618105  -4.543173 26.724143
279   1  0.5250   9.972935  -7.653225 37.065235
280   1  0.5250  10.327765 -10.763277 47.406327
281   1  0.5250   5.157620   9.357640  6.041959
282   1  0.5250   5.512450   6.247588 16.383051
283   1  0.5250   5.867280   3.137536 26.724143
284   1  0.5250   6.222110   0.027484 37.065235
285   1  0.5250   6.576940  -3.082568 47.406327
286   1  0.5250   1.406795  17.038349  6.041959
287   1  0.5250   1.761625  13.928297 16.383051
288   1  0.5250   2.116455  10.818245 26.724143
289   1  0.5250   2.471285   7.708193 37.065235
290   1  0.5250   2.826115   4.598141 47.406327
291   1  0.5250  -2.344030  24.719058  6.041959
292   1  0.5250  -1.989200  21.609006 16.383051
293   1  0.5250  -1.634370  18.498954 26.724143
294   1  0.5250  -1.279540  15.388902 37.065235
295   1  0.5250  -0.924710  12.278850 47.406327
296   1  0.5250  -6.094855  32.399767  6.041959
297   1  0.5250  -5.740025  29.289715 16.383051
298   1  0.5250  -5.385195  26.179663 26.724143
299   1  0.5250  -5.030365  23.069611 37.065235
300   1  0.5250  -4.675535  19.959559 47.406327
301   1  0.5250  16.608437   1.676931  6.041959
302   1  0.5250  16.963267  -1.433121 16.383051
303   1  0.5250  17.318097  -4.543173 26.724143
304   1  0.5250  17.672927  -7.653225 37.065235
305   1  0.5250  18.027757 -10.763277 47.406327
306   1  0.5250  12.857612   9.357640  6.041959
307   1  0.5250  13.212442   6.247588 16.383051
308   1  0.5250  13.567272   3.137536 26.724143
309   1  0.5250  13.922102   0.027484 37.065235
310   1  0.5250  14.276932  -3.082568 47.406327
311   1  0.5250   9.106787  17.038349  6.041959
312   1  0.5250   9.461617  13.928297 16.383051
313   1  0.5250   9.816447  10.818245 26.724143
314   1  0.5250  10.171277   7.708193 37.065235
315   1  0.5250  10.526107   4.598141 47.406327
316   1  0.5250   5.355962  24.719058  6.041959
317   1  0.5250   5.710792  21.609006 16.383051
318   1  0.5250   6.065622  18.498954 26.724143
319   1  0.5250   6.420452  15.388902 37.065235
320   1  0.5250   6.775282  12.278850 47.406327
321   1  0.5250   1.605137  32.399767  6.041959
322   1  0.5250   1.959967  29.289715 16.383051
323   1  0.5250   2.314797  26.179663 26.724143
324   1  0.5250   2.669627  23.069611 37.065235
325   1  0.5250   3.024457  19.959559 47.406327
326   1  0.5250  24.308429   1.676931  6.041959
327   1  0.5250  24.663259  -1.433121 16.383051
328   1  0.5250  25.018089  -4.543173 26.724143
329   1  0.5250  25.372919  -7.653225 37.065235
330   1  0.5250  25.727749 -10.763277 47.406327
331   1  0.5250  20.557604   9.357640  6.041959
332   1  0.5250  20.912434   6.247588 16.383051
333   1  0.5250  21.267264   3.137536 26.724143
334   1  0.5250  21.622094   0.027484 37.065235
335   1  0.5250  21.976924  -3.082568 47.406327
336   1  0.5250  16.806779  17.038349  6.041959
337   1  0.5250  17.161609  13.928297 16.383051
338   1  0.5250  17.516439  10.818245 26.724143
339   1  0.5250  17.871269   7.708193 37.065235
340   1  0.5250  18.226099   4.598141 47.406327
341   1  0.5250  13.055954  24.719058  6.041959
342   1  0.5250  13.410784  21.609006 16.383051
343   1  0.5250  13.765614  18.498954 26.724143
344   1  0.5250  14.120444  15.388902 37.065235
345   1  0.5250  14.475274  12.278850 47.406327
346   1  0.5250   9.305129  32.399767  6.041959
347   1  0.5250   9.659959  29.289715 16.383051
348   1  0.5250  10.014789  26.179663 26.724143
349   1  0.5250  10.369619  23.069611 37.065235
350   1  0.5250  10.724449  19.959559 47.406327
351   1  0.5250  32.008421   1.676931  6.041959
352   1  0.5250  32.363251  -1.433121 16.383051
353   1  0.5250  32.718081  -4.543173 26.724143
354   1  0.5250  33.072911  -7.653225 37.065235
355   1  0.5250  33.427741 -10.763277 47.406327
356   1  0.5250  28.257596   9.357640  6.041959
357   1  0.5250  28.612426   6.247588 16.383051
358   1  0.5250  28.967256   3.137536 26.724143
359   1  0.5250  29.322086   0.027484 37.065235
360   1  0.5250  29.676916  -3.082568 47.406327
361   1  0.5250  24.506771  17.038349  6.041959
362   1  0.5250  24.861601  13.928297 16.383051
363   1  0.5250  25.216431  10.818245 26.724143
364   1  0.5250  25.571261   7.708193 37.065235
365   1  0.5250  25.926091   4.598141 47.406327
366   1  0.5250  20.755946  24.719058  6.041959
367   1  0.5250  21.110776  21.609006 16.383051
368   1  0.5250  21.465606  18.498954 26.724143
369   1  0.5250  21.820436  15.388902 37.065235
370   1  0.5250  22.175266  12.278850 47.406327
371   1  0.5250  17.005121  32.399767  6.041959
372   1  0.5250  17.359951  29.289715 16.383051
373   1  0.5250  17.714781  26.179663 26.724143
374   1  0.5250  18.069611  23.069611 37.065235
375   1  0.5250  18.424441  19.959559 47.406327
376   1  0.5250   0.229637   3.285044  0.728044
377   1  0.5250   0.584467   0.174992 11.069136
378   1  0.5250   0.939297  -2.935060 21.410228
379   1  0.5250   1.294127  -6.045112 31.751320
380   1  0.5250   1.648957  -9.155164 42.092412
381   1  0.5250  -3.521188  10.965753  0.728044
382   1  0.5250  -3.166358   7.855701 11.069136
383   1  0.5250  -2.811528   4.745649 21.410228
384   1  0.5250  -2.456698   1.635597 31.751320
385   1  0.5250  -2.101868  -1.474455 42.092412
386   1  0.5250  -7.272013  18.646462  0.728044
387   1  0.5250  -6.917183  15.536410 11.069136
388   1  0.5250  -6.562353  12.426358 21.410228
389   1  0.5250  -6.207523   9.316306 31.751320
390   1  0.5250  -5.852693   6.206254 42.092412
391   1  0.5250 -11.022838  26.327171  0.728044
392   1  0.5250 -10.668008  23.217119 11.069136
393   1  0.5250 -10.313178  20.107067 21.410228
394   1  0.5250  -9.958348  16.997015 31.751320
395   1  0.5250  -9.603518  13.886963 42.092412
396   1  0.5250 -14.773663  34.007880  0.728044
397   1  0.5250 -14.418833  30.897828 11.069136
398   1  0.5250 -14.064003  27.787776 21.410228
399   1  0.5250 -13.709173  24.677724 31.751320
400   1  0.5250 -13.354343  21.567672 42.092412
401   1  0.5250   7.929629   3.285044  0.728044
402   1  0.5250   8.284459   0.174992 11.069136
403   1  0.5250   8.639289  -2.935060 21.410228
404   1  0.5250   8.994119  -6.045112 31.751320
405   1  0.5250   9.348949  -9.155164 42.092412
406   1  0.5250   4.178804  10.965753  0.728044
407   1  0.5250   4.533634   7.855701 11.069136
408   1  0.5250   4.888464   4.745649 21.410228
409   1  0.5250   5.243294   1.635597 31.751320
410   1  0.5250   5.598124  -1.474455 42.092412
411   1  0.5250   0.427979  18.646462  0.728044
412   1  0.5250   0.782809  15.536410 11.069136
413   1  0.5250   1.137639  12.426358 21.410228
414   1  0.5250   1.492469   9.316306 31.751320
415   1  0.5250   1.847299   6.206254 42.092412
416   1  0.5250  -3.322846  26.327171  0.728044
417   1  0.5250  -2.968016  23.217119 11.069136
418   1  0.5250  -2.613186  20.107067 21.410228
419   1  0.5250  -2.258356  16.997015 31.751320
420   1  0.5250  -1.903526  13.886963 42.092412
421   1  0.5250  -7.073671  34.007880  0.728044
422   1  0.5250  -6.718841  30.897828 11.069136
423   1  0.5250  -6.364011  27.787776 21.410228
424   1  0.5250  -6.009181  24.677724 31.751320
425   1  0.5250  -5.654351  21.567672 42.092412
426   1  0.5250  15.629621   3.285044  0.728044
427   1  0.5250  15.984451   0.174992 11.069136
428   1  0.5250  16.339281  -2.935060 21.410228
429   1  0.5250  16.694111  -6.045112 31.751320
430   1  0.5250  17.048941  -9.155164 42.092412
431   1  0.5250  11.878796  10.965753  0.728044
432   1  0.5250  12.233626   7.855701 11.069136
433   1  0.5250  12.588456   4.745649 21.410228
434   1  0.5250  12.943286   1.635597 31.751320
435   1  0.5250  13.298116  -1.474455 42.092412
436   1  0.5250   8.127971  18.646462  0.728044
437   1  0.5250   8.482801  15.536410 11.069136
438   1  0.5250   8.837631  12.426358 21.410228
439   1  0.5250   9.192461   9.316306 31.751320
440   1  0.5250   9.547291   6.206254 42.092412
441   1  0.5250   4.377146  26.327171  0.728044
442   1  0.5250   4.731976  23.217119 11.069136
443   1  0.5250   5.086806  20.107067 21.410228
444   1  0.5250   5.441636  16.997015 31.751320
445   1  0.5250   5.796466  13.886963 42.092412
446   1  0.5250   0.626321  34.007880  0.728044
447   1  0.5250   0.981151  30.897828 11.069136
448   1  0.5250   1.335981  27.787776 21.410228
449   1  0.5250   1.690811  24.677724 31.751320
450   1  0.5250   2.045641  21.567672 42.092412
451   1  0.5250  23.329613   3.285044  0.728044
452   1  0.5250  23.684443   0.174992 11.069136
453   1  0.5250  24.039273  -2.935060 21.410228
454   1  0.5250  24.394103  -6.045112 31.751320
455   1  0.5250  24.748933  -9.155164 42.092412
456   1  0.5250  19.578788  10.965753  0.728044
457   1  0.5250  19.933618   7.855701 11.069136
458   1  0.5250  20.288448   4.745649 21.410228
459   1  0.5250  20.643278   1.635597 31.751320
460   1  0.5250  20.998108  -1.474455 42.092412
461   1  0.5250  15.827963  18.646462  0.728044
462   1  0.5250  16.182793  15.536410 11.069136
463   1  0.5250  16.537623  12.426358 21.410228
464   1  0.5250  16.892453   9.316306 31.751320
465   1  0.5250  17.247283   6.206254 42.092412
466   1  0.5250  12.077138  26.327171  0.728044
467   1  0.5250  12.431968  23.217119 11.069136
468   1  0.5250  12.786798  20.107067 21.410228
469   1  0.5250  13.141628  16.997015 31.751320
470   1  0.5250  13.496458  13.886963 42.092412
471   1  0.5250   8.326313  34.007880  0.728044
472   1  0.5250   8.681143  30.897828 11.069136
473   1  0.5250   9.035973  27.787776 21.410228
474   1  0.5250   9.390803  24.677724 31.751320
475   1  0.5250   9.745633  21.567672 42.092412
476   1  0.5250  31.029605   3.285044  0.728044
477   1  0.5250  31.384435   0.174992 11.069136
478   1  0.5250  31.739265  -2.935060 21.410228
479   1  0.5250  32.094095  -6.045112 31.751320
480   1  0.5250  32.448925  -9.155164 42.092412
481   1  0.5250  27.278780  10.965753  0.728044
482   1  0.5250  27.633610   7.855701 11.069136
483   1  0.5250  27.988440   4.745649 21.410228
484   1  0.5250  28.343270   1.635597 31.751320
485   1  0.5250  28.698100  -1.474455 42.092412
486   1  0.5250  23.527955  18.646462  0.728044
487   1  0.5250  23.882785  15.536410 11.069136
488   1  0.5250  24.237615  12.426358 21.410228
489   1  0.5250  24.592445   9.316306 31.751320
490   1  0.5250  24.947275   6.206254 42.092412
491   1  0.5250  19.777130  26.327171  0.728044
492   1  0.5250  20.131960  23.217119 11.069136
493   1  0.5250  20.486790  20.107067 21.410228
494   1  0.5250  20.841620  16.997015 31.751320
495   1  0.5250  21.196450  13.886963 42.092412
496   1  0.5250  16.026305  34.007880  0.728044
497   1  0.5250  16.381135  30.897828 11.069136
498   1  0.5250  16.735965  27.787776 21.410228
499   1  0.5250  17.090795  24.677724 31.751320
500   1  0.5250  17.445625  21.567672 42.092412
501   2  1.3600   0.000000   0.000000  0.000000
502   2  1.3600   0.354830  -3.110052 10.341092
503   2  1.3600   0.709660  -6.220104 20.682184
504   2  1.3600   1.064490  -9.330156 31.023276
505   2  1.3600   1.419320 -12.440208 41.364368
506   2  1.3600  34.749135   7.680709  0.000000
507   2  1.3600  -3.395995   4.570657 10.341092
508   2  1.3600  -3.041165   1.460605 20.682184
509   2  1.3600  -2.686335  -1.649447 31.023276
510   2  1.3600  -2.331505  -4.759499 41.364368
511   2  1.3600  30.998310  15.361418  0.000000
512   2  1.3600  -7.146820  12.251366 10.341092
513   2  1.3600  -6.791990   9.141314 20.682184
514   2  1.3600  -6.437160   6.031262 31.023276
515   2  1.3600  -6.082330   2.921210 41.364368
516   2  1.3600  27.247485  23.042127  0.000000
517   2  1.3600 -10.897645  19.932075 10.341092
518   2  1.3600  27.957145  16.822023 20.682184
519   2  1.3600 -10.187985  13.711971 31.023276
520   2  1.3600  -9.833155  10.601919 41.364368
521   2  1.3600  23.496660  30.722836  0.000000
522   2  1.3600  23.851490  27.612784 10.341092
523   2  1.3600 -14.293640  24.502732 20.682184
524   2  1.3600 -13.938810  21.392680 31.023276
525   2  1.3600 -13.583980  18.282628 41.364368
526   2  1.3600   7.699992  -0.000000 -0.000000
527   2  1.3600   8.054822  -3.110052 10.341092
528   2  1.3600   8.409652  -6.220104 20.682184
529   2  1.3600   8.764482  -9.330156 31.023276
530   2  1.3600   9.119312 -12.440208 41.364368
531   2  1.3600   3.949167   7.680709  0.000000
532   2  1.3600   4.303997   4.570657 10.341092
533   2  1.3600   4.658827   1.460605 20.682184
534   2  1.3600   5.013657  -1.649447 31.023276
535   2  1.3600   5.368487  -4.759499 41.364368
536   2  1.3600   0.198342  15.361418  0.000000
537   2  1.3600   0.553172  12.251366 10.341092
538   2  1.3600   0.908002   9.141314 20.682184
539   2  1.3600   1.262832   6.031262 31.023276
540   2  1.3600   1.617662   2.921210 41.364368
541   2  1.3600  -3.552483  23.042127  0.000000
542   2  1.3600  -3.197653  19.932075 10.341092
543   2  1.3600  -2.842823  16.822023 20.682184
544   2  1.3600  -2.487993  13.711971 31.023276
545   2  1.3600  -2.133163  10.601919 41.364368
546   2  1.3600  -7.303308  30.722836  0.000000
547   2  1.3600  -6.948478  27.612784 10.341092
548   2  1.3600  -6.593648  24.502732 20.682184
549   2  1.3600  -6.238818  21.392680 31.023276
550   2  1.3600  -5.883988  18.282628 41.364368
551   2  1.3600  15.399984  -0.000000 -0.000000
552   2  1.3600  15.754814  -3.110052 10.341092
553   2  1.3600  16.109644  -6.220104 20.682184
554   2  1.3600  16.464474  -9.330156 31.023276
555   2  1.3600  16.819304 -12.440208 41.364368
556   2  1.3600  11.649159   7.680709  0.000000
557   2  1.3600  12.003989   4.570657 10.341092
558   2  1.3600  12.358819   1.460605 20.682184
559   2  1.3600  12.713649  -1.649447 31.023276
560   2  1.3600  13.068479  -4.759499 41.364368
561   2  1.3600   7.898334  15.361418  0.000000
562   2  1.3600   8.253164  12.251366 10.341092
563   2  1.3600   8.607994   9.141314 20.682184
564   2  1.3600   8.962824   6.031262 31.023276
565   2  1.3600   9.317654   2.921210 41.364368
566   2  1.3600   4.147509  23.042127  0.000000
567   2  1.3600   4.502339  19.932075 10.341092
568   2  1.3600   4.857169  16.822023 20.682184
569   2  1.3600   5.211999  13.711971 31.023276
570   2  1.3600   5.566829  10.601919 41.364368
571   2  1.3600   0.396684  30.722836  0.000000
572   2  1.3600   0.751514  27.612784 10.341092
573   2  1.3600   1.106344  24.502732 20.682184
574   2  1.3600   1.461174  21.392680 31.023276
575   2  1.3600   1.816004  18.282628 41.364368
576   2  1.3600  23.099976  -0.000000 -0.000000
577   2  1.3600  23.454806  -3.110052 10.341092
578   2  1.3600  23.809636  -6.220104 20.682184
579   2  1.3600  24.164466  -9.330156 31.023276
580   2  1.3600  24.519296 -12.440208 41.364368
581   2  1.3600  19.349151   7.680709  0.000000
582   2  1.3600  19.703981   4.570657 10.341092
583   2  1.3600  20.058811   1.460605 20.682184
584   2  1.3600  20.413641  -1.649447 31.023276
585   2  1.3600  20.768471  -4.759499 41.364368
586   2  1.3600  15.598326  15.361418  0.000000
587   2  1.3600  15.953156  12.251366 10.341092
588   2  1.3600  16.307986   9.141314 20.682184
589   2  1.3600  16.662816   6.031262 31.023276
590   2  1.3600  17.017646   2.921210 41.364368
591   2  1.3600  11.847501  23.042127  0.000000
592   2  1.3600  12.202331  19.932075 10.341092
593   2  1.3600  12.557161  16.822023 20.682184
594   2  1.3600  12.911991  13.711971 31.023276
595   2  1.3600  13.266821  10.601919 41.364368
596   2  1.3600   8.096676  30.722836  0.000000
597   2  1.3600   8.451506  27.612784 10.341092
598   2  1.3600   8.806336  24.502732 20.682184
599   2  1.3600   9.161166  21.392680 31.023276
600   2  1.3600   9.515996  18.282628 41.364368
601   2  1.3600  30.799968  -0.000000 -0.000000
602   2  1.3600  31.154798  -3.110052 10.341092
603   2  1.3600  31.509628  -6.220104 20.682184
604   2  1.3600  31.864458  -9.330156 31.023276
605   2  1.3600  32.219288 -12.440208 41.364368
606   2  1.3600  27.049143   7.680709  0.000000
607   2  1.3600  27.403973   4.570657 10.341092
608   2  1.3600  27.758803   1.460605 20.682184
609   2  1.3600  28.113633  -1.649447 31.023276
610   2  1.3600  28.468463  -4.759499 41.364368
611   2  1.3600  23.298318  15.361418  0.000000
612   2  1.3600  23.653148  12.251366 10.341092
613   2  1.3600  24.007978   9.141314 20.682184
614   2  1.3600  24.362808   6.031262 31.023276
615   2  1.3600  24.717638   2.921210 41.364368
616   2  1.3600  19.547493  23.042127  0.000000
617   2  1.3600  19.902323  19.932075 10.341092
618   2  1.3600  20.257153  16.822023 20.682184
619   2  1.3600  20.611983  13.711971 31.023276