LAMMPS data file via write_data, version 29 Aug 2024, timestep = 36609, units = metal

5250 atoms
4 atom types

-0.02083490432911859 39.4281869043288 xlo xhi
-0.02078272738901015 39.32944672738918 ylo yhi
-0.027981283526610543 52.952068283526565 zlo zhi
-19.21643222330497 1.8178842222065104 -15.933588571623241 xy xz yz

Masses

1 6.941
2 54.938045
3 78.95999999999999
4 15.9994

Pair Coeffs # buck/coul/long

1 1388.77 0.3623 0
2 1388.77 0.3623 0
3 1388.77 0.3623 0
4 1388.77 0.3623 0

Atoms # charge

8 4 -0.3206 4.889202841158286 1.5094898695975454 3.6201282969290363 0 0 0
10 4 -0.3206 3.5911991500950124 2.1785043755767672 1.0461287276304774 0 0 0
18 4 -0.3206 6.444064154714123 0.9893032199766055 6.076664883441837 0 0 0
19 4 -0.3206 3.9446422492618898 -0.04002467317881525 5.72585030917071 0 0 0
20 4 -0.3206 2.5527636058465015 2.2125061838499325 5.136147303407847 0 0 0
3052 2 1.36 2.492282155653848 0.44731664870644144 3.0319607321229594 1 1 0
2912 3 -0.3206 6.323307045852174 -0.7821997587021501 3.895749203995258 0 1 0
465 4 -0.3206 1.6465608745453242 0.829324585973326 7.313896697253139 0 0 0
462 2 1.36 2.862373021287822 -1.6539765508152648 7.646865416918773 0 0 0
3054 3 -0.3206 1.1579480774690674 1.4018668080224006 0.42387203513903343 1 1 0
11 4 -0.3206 1.4352844188605942 -0.8717079307888138 5.126973833088606 0 0 0
447 1 0.525 4.2008119457639825 1.7315143244224476 7.849214055392998 0 0 0
2920 4 -0.3206 4.9173459145266945 -0.11004513091251075 1.3223830119707414 0 1 0
89 4 -0.3206 0.00466360793337069 1.4390037742515744 4.6259457965976605 1 0 0
452 3 -0.3206 5.300809597231963 -0.6933812548630957 8.207768137300093 0 0 0
456 4 -0.3206 6.7846610337530295 2.3174593739282803 8.466031216367023 0 0 0
3051 4 -0.3206 0.010319748875556638 -0.13926798625678208 2.355917112455431 1 1 0
593 4 -0.3206 -0.8417906832194854 1.6977861854360754 8.649324838984377 1 0 0
82 3 -0.3206 -1.1581414239611587 2.2875273195054997 2.0692913069118855 1 0 0
4 2 1.36 7.522378177058712 2.0345537030946326 3.796836556625521 0 0 0
5 3 -0.3206 7.557736152352728 0.40285988186918825 1.7886681663125341 0 0 0
2924 3 -0.3206 7.709135121123083 -1.3235055696318094 6.473264707986325 0 1 0
14 4 -0.3206 8.908451214007716 -0.1895972539588499 4.348985917454326 0 0 0
3 2 1.36 8.998013199374034 1.2515313450606795 6.756747868826872 0 0 0
16 4 -0.3206 10.105142167638709 1.474166459724172 2.501985436543917 0 0 0
24 2 1.36 14.996748087929161 -1.2966714985529233 6.333414083224001 0 0 0
25 2 1.36 15.104457247609071 1.1862458625641483 1.708572508169589 0 0 0
29 4 -0.3206 13.70655591944721 -0.38586998134720457 3.420155274587859 0 0 0
31 4 -0.3206 12.463820093659049 0.6489350489331313 1.0948652534142613 0 0 0
32 4 -0.3206 11.296733185136462 0.5139850739295725 5.115752033765453 0 0 0
39 4 -0.3206 10.289347641045985 -1.1021299647369756 7.160801687645824 0 0 0
478 4 -0.3206 13.89493047960543 1.0067571072191337 5.841652735729786 0 0 0
35 4 -0.3206 15.121947064132181 2.5962429693208446 3.9341839140177646 0 0 0
23 1 0.525 12.586465424064208 2.101556271936296 3.4455052329475584 0 0 0
479 4 -0.3206 11.443255680163716 1.5736845450401773 7.658126297335339 0 0 0
3433 3 -0.3206 12.886198917617163 -0.649830744881652 7.9094575115154475 0 1 0
495 4 -0.3206 14.011862233609353 2.4813422450235745 8.203308537123045 0 0 0
21 4 -0.3206 9.911243410410535 2.9492479608772886 4.787002130938057 0 0 0
151 2 1.36 11.117391409535083 2.942453953788898 0.46345262758216593 0 0 0
487 3 -0.3206 15.51518681015334 0.20094038723483537 8.4076349005264 0 0 0
28 4 -0.3206 16.3039040837292 0.08629730256712248 4.349400376706193 0 0 0
490 4 -0.3206 16.489296793052176 1.7545244875448542 6.469614877372873 0 0 0
43 2 1.36 23.02074670771905 1.7581586310135653 2.868855875520331 0 0 0
44 3 -0.3206 22.788659366055104 0.4007303398953805 0.6252848169886075 0 0 0
48 4 -0.3206 21.598243824272064 0.8264952366582374 5.062652567231721 0 0 0
50 4 -0.3206 20.36213404250709 1.6406857764714418 2.4199682026234974 0 0 0
51 4 -0.3206 18.949292714330753 0.6700363747577844 4.675860826900865 0 0 0
52 4 -0.3206 17.622386430939436 1.5852186024112844 2.2656629758117903 0 0 0
3421 2 1.36 18.01056674024218 -0.49670366628254714 6.880961019391169 0 1 0
533 4 -0.3206 19.08140361092746 2.250312227224797 6.945457609119965 0 0 0
517 4 -0.3206 20.567041982696225 -0.054236026310427246 7.514316563622297 0 0 0
514 1 0.525 21.691457863911715 2.5092170617984326 7.262418076376934 0 0 0
42 2 1.36 23.198992163749075 -0.18299417758769007 7.372019803639041 0 0 0
2246 1 0.525 18.768156173684897 2.626122680772972 0.012732675179590374 0 0 1
57 4 -0.3206 20.146890025100117 0.10826131311851822 0.1457989732216397 0 0 0
182 1 0.525 21.492940778010556 2.7665818798431014 0.20328462555628385 0 0 0
2989 4 -0.3206 21.560874298348306 -0.8101347360500006 2.778029489446497 0 1 0
53 4 -0.3206 24.23167826655486 0.9302455885285218 5.222618305077933 0 0 0
54 4 -0.3206 24.278668274758125 -0.6367661003851752 3.0397939824273146 0 0 0
538 4 -0.3206 24.374226819944703 2.592784189686485 7.352627465084469 0 0 0
47 4 -0.3206 25.571553670584702 2.166206465332698 3.152207093055173 0 0 0
56 3 -0.3206 25.499090273666166 0.7147053800839115 0.899762058623005 0 0 0
66 4 -0.3206 29.433496935124808 0.5514975598325051 3.8453752659605196 0 0 0
68 4 -0.3206 28.085591398244016 1.3710155983985954 1.4591932503516107 0 0 0
69 4 -0.3206 26.803184226910716 1.314369483538754 5.516105217447731 0 0 0
73 1 0.525 29.239913385749446 1.8689998328417838 6.16922127240133 0 0 0
74 4 -0.3206 30.88782904289608 -0.1742690795814128 6.79355020100693 0 0 0
77 2 1.36 26.927286520267312 -0.19322749353145066 3.330616887729814 0 0 0
61 2 1.36 30.639615982130294 2.1873883640717997 2.1324853175748557 0 0 0
233 3 -0.3206 28.094153485353292 2.946957779540301 3.6603955917138853 0 0 0
79 3 -0.3206 28.31614537692872 -0.9174816260950984 5.949524842684705 0 0 0
565 4 -0.3206 27.0652416523045 2.9316683084352597 7.7878300684587005 0 0 0
515 4 -0.3206 25.729249684965282 0.24140133299188166 7.79694668876191 0 0 0
55 4 -0.3206 25.687967899465004 -1.4643213091612148 5.492650847031608 0 0 0
2977 4 -0.3206 26.993881489700165 -2.1144045866487398 8.014725170098547 0 1 0
547 4 -0.3206 28.36190688865915 0.6130637520497626 8.324384407765077 0 0 0
72 4 -0.3206 31.99782249342884 1.151660473040376 4.626382316165758 0 0 0
3019 4 -0.3206 31.945264523449897 -0.2517912552194845 2.3166613736478108 0 1 0
60 2 1.36 31.934213356571664 2.488408645947482 6.891508793979646 0 0 0
3000 1 0.525 33.19495265329635 0.8945898242907738 0.25076278358543835 0 1 0
3022 4 -0.3206 33.35926253390528 2.4627891507286876 2.6674058620908907 0 1 0
78 2 1.36 34.4459294949402 0.07877935098853339 3.2857868482085277 0 0 0
85 4 -0.3206 36.975344638333986 0.666968040823269 3.9562039545320062 0 0 0
88 4 -0.3206 34.61699281006027 1.6419947216594688 5.427464023496795 0 0 0
91 4 -0.3206 35.678209503677806 1.5434694985056694 1.2984740723126247 0 0 0
92 2 1.36 38.571761497246925 -0.18201917062389075 6.57710235872388 0 0 0
94 1 0.525 37.13032901198803 2.3163597258757345 6.148909790093083 0 0 0
90 3 -0.3206 35.990725534161875 -0.7125450457148633 6.06590138028037 0 0 0
581 4 -0.3206 33.441341106600845 0.4466939493340038 7.677982893265015 0 0 0
561 4 -0.3206 33.424422435205656 -1.1619958158227013 5.4056166662402605 0 0 0
95 4 -0.3206 36.068014111425505 0.906535104578713 8.235841726345495 0 0 0
577 2 1.36 34.684511852962586 -1.7975761089589875 8.182531907682986 0 0 0
588 3 -0.3206 37.35716289259308 -1.525541178618572 8.525629385220112 0 0 0
273 2 1.36 -3.2759348857604116 10.347107192837244 5.846407082673142 1 0 0
271 4 -0.3206 -2.1669615303141754 10.180391572821083 1.6339271836061906 1 0 0
276 4 -0.3206 -2.3843707523278046 7.830632721523639 6.07292405068995 1 0 0
275 4 -0.3206 -1.3677864648809759 5.277022471238832 6.503578442943115 1 0 0
251 4 -0.3206 -4.9191366222871045 11.266950873029018 3.649932353345319 1 0 0
614 4 -0.3206 -2.082862289359201 9.740763896523095 8.174754044724121 0 0 0
261 3 -0.3206 -3.6272716842087314 8.749448298013888 3.611052026559685 1 0 0
270 4 -0.3206 -2.618809506016407 6.127074843570268 3.8252576882151215 1 0 0
277 4 -0.3206 -4.692495773760004 8.776951426212367 7.4389235895019885 1 0 0
610 4 -0.3206 -5.981894275993402 11.151430651538567 6.9774798004732395 0 0 0
259 1 0.525 -2.058683159914861 4.744081573375857 1.6569017000360042 1 0 0
781 4 -0.3206 -3.6824765488347073 6.21960301137699 8.008800313827521 1 0 0
245 4 -0.3206 -4.827392957271396 9.622974995817327 1.1205838376993973 1 0 0
585 1 0.525 -2.5911160172042282 3.78676104354893 8.542258294630596 1 0 0
84 4 -0.3206 1.4000016790046474 2.976130541778779 2.6794609637015947 1 0 0
13 4 -0.3206 0.251134609274305 3.1690136842600656 6.681754933957411 0 0 0
612 2 1.36 -1.2428752652139232 7.116546651065806 8.50060340223401 0 0 0
258 2 1.36 -1.161915348911494 7.761070911527838 2.0012818137818393 1 0 0
134 4 -0.3206 6.1576260273113315 2.8955461390998463 1.616185869378832 0 0 0
100 4 -0.3206 -1.0486333449432068 9.398777210314426 4.195414284623047 0 0 0
17 1 0.525 4.99873393279551 3.215417874139606 5.821016937078898 0 0 0
81 2 1.36 -0.72411901896187 4.039620122898976 4.248235452183553 1 0 0
98 3 -0.3206 -0.14732291990740898 6.894615776599554 4.607537301469963 0 0 0
260 4 -0.3206 0.5248774226766356 5.60825976197427 2.3746287940167634 1 0 0
103 4 -0.3206 0.10366642802063687 9.230453307142135 0.054151470994230684 0 0 0
105 4 -0.3206 0.11943871543024516 8.69936219678456 6.813130530999479 0 0 0
86 4 -0.3206 0.2654489484756969 3.9906696491657563 0.19805178954512204 1 0 0
267 4 -0.3206 0.33805709340815915 10.961840759562655 2.3190224029970525 1 0 0
2 1 0.525 3.8255561810875487 3.930316818980624 3.3338492116636895 0 0 0
106 2 1.36 2.732953203680644 4.770216085892873 0.8980206773928677 0 0 0
109 4 -0.3206 3.376000767681177 6.576926353275552 3.1047958847632082 0 0 0
113 2 1.36 5.784790403732987 8.308859554389468 1.6807578013806095 0 0 0
114 2 1.36 4.734225863754428 8.61697675643391 5.848464079538053 0 0 0
116 3 -0.3206 2.546149790180438 10.270771850864953 0.7911820574698926 0 0 0
117 3 -0.3206 3.457654247748244 7.686206164650533 0.7090334239654359 0 0 0
119 3 -0.3206 5.197870804791429 5.5271592942316445 1.4857798479804354 0 0 0
120 4 -0.3206 5.005961114505052 11.069176512178435 1.4875940653982151 0 0 0
122 4 -0.3206 1.31268417153361 8.375180369199576 2.574553805065008 0 0 0
126 4 -0.3206 6.327750006480306 4.501438822072299 3.895906298471938 0 0 0
127 4 -0.3206 3.7617699329323546 9.354804799363308 3.2561197240723656 0 0 0
130 4 -0.3206 6.3735575136267775 9.952627377321539 3.883870043329653 0 0 0
137 4 -0.3206 2.3436282118774883 7.785632908911414 5.291855164474379 0 0 0
138 4 -0.3206 6.237243000035318 7.267361093013297 4.148573923830834 0 0 0
141 3 -0.3206 4.298972649758739 5.776276784034423 5.516155645284078 0 0 0
143 1 0.525 1.3958002989560698 10.234086790524152 4.8445586969945875 0 0 0
144 3 -0.3206 1.7349462160179954 4.876086784219802 4.801291841861686 0 0 0
627 3 -0.3206 1.1835918794936688 6.193302730287136 7.202921885803559 0 0 0
631 2 1.36 6.641864408393565 5.977215690431078 6.626953035852053 0 0 0
466 4 -0.3206 2.794537477299686 4.013012169436731 7.252036415145453 0 0 0
136 4 -0.3206 4.056643170263535 11.105728399709292 5.28981722457847 0 0 0
628 4 -0.3206 2.7201461993579326 9.766017280279339 7.290382794163069 0 0 0
636 3 -0.3206 3.8874842770853593 7.05640586494901 7.825760216530446 0 0 0
638 4 -0.3206 5.301879358895346 9.854174569927808 8.098529437069201 0 0 0
463 4 -0.3206 5.172615016175416 4.521495198342656 8.28559509681008 0 0 0
602 1 0.525 0.653497752897454 10.704208456833733 8.527977019435038 0 0 0
2304 4 -0.3206 1.1055314187285725 6.740209764869619 0.017362444150012018 1 0 1
671 3 -0.3206 6.4767837087146285 7.545527143223276 8.689274612175925 0 0 0
349 2 1.36 17.339672207088032 17.562640942064835 6.7509995524646715 0 0 0
125 4 -0.3206 7.648421997279703 6.349018582543509 2.052418924645858 0 0 0
647 4 -0.3206 7.470782771264383 8.656612966084513 6.259979013584986 0 0 0
142 4 -0.3206 7.6477426779270905 3.57276006557265 6.21237512155331 0 0 0
150 4 -0.3206 8.45824175091272 8.902444600302205 2.6692384946747927 0 0 0
477 1 0.525 12.468005315756667 3.289729260764809 5.832396520396512 0 0 0
124 4 -0.3206 8.454314288379114 7.797577840590039 0.05458369100860347 0 0 0
135 4 -0.3206 8.693887033830354 3.8732577901713063 2.310653588597895 0 0 0
174 4 -0.3206 13.66493477413633 3.5332392723746433 1.4145678872840484 0 0 0
499 4 -0.3206 14.98616186315714 4.166669271677011 6.2261891115483605 0 0 0
111 1 0.525 8.848405955193384 10.669841785695768 4.8722942779155884 0 0 0
118 3 -0.3206 8.6119558191394 5.646495535471173 4.559301196460792 0 0 0
129 4 -0.3206 9.740753419316695 10.781197254420597 0.8546929837643019 0 0 0
181 1 0.525 9.95758830045676 8.12358168271059 5.134172676977799 0 0 0
145 4 -0.3206 10.021794576148348 5.475562997686655 0.4594002729205868 0 0 0
154 2 1.36 15.052348143656095 6.7689847225815525 2.2242561503484946 0 0 0
155 2 1.36 10.180055020070009 6.695220663523062 2.7846273724184747 0 0 0
157 3 -0.3206 11.004240842514273 8.292076832838738 0.8758320468599454 0 0 0
158 3 -0.3206 13.586449934531343 8.915681914765166 1.5301865406831798 0 0 0
161 3 -0.3206 11.2565865773101 4.297252953680108 2.7934950423035665 0 0 0
162 4 -0.3206 14.947821413630821 8.49683379409347 4.422824267757982 0 0 0
168 4 -0.3206 12.672373999363082 6.086910843616481 1.2277247663803963 0 0 0
172 4 -0.3206 13.548955872830398 10.67981912245571 3.62067657533108 0 0 0
176 4 -0.3206 10.951529365974832 9.842979924121002 3.205921411346134 0 0 0
177 4 -0.3206 13.653753906911147 4.962914672171713 3.798682202764385 0 0 0
663 3 -0.3206 11.291582259836131 5.650643535285816 5.251885102593576 0 0 0
664 4 -0.3206 12.524974984122197 7.485289071526279 3.5650833951028447 0 0 0
676 2 1.36 13.77551797843789 6.615381884087498 6.011430556041775 0 0 0
684 4 -0.3206 12.478252003162678 9.130761684309311 5.655940638133493 0 0 0
688 4 -0.3206 14.412601683388989 11.09444347433406 6.057443895516034 0 0 0
668 3 -0.3206 9.119260990398924 6.4449540474462115 6.989320603230658 0 0 0
681 3 -0.3206 11.588082006145152 7.431525678250324 7.468465350159499 0 0 0
494 4 -0.3206 10.13718929254369 3.9734321378467903 7.311568882156577 0 0 0
666 4 -0.3206 10.067236148001339 9.822358642986355 7.18602931462536 0 0 0
679 2 1.36 12.448947790209647 10.879010159146056 7.748794251867126 0 0 0
662 4 -0.3206 12.76285192073096 5.006159564396059 7.834965825642808 0 0 0
690 4 -0.3206 14.048203944250297 8.53020772567483 7.931531843399338 0 0 0
691 4 -0.3206 15.283334670839977 10.749917221019322 8.598209873650669 0 0 0
630 1 0.525 7.842526780715708 10.434491587436396 8.600050566214767 0 0 0
661 4 -0.3206 15.188267088057051 5.9255599620283155 8.502798543287065 0 0 0
34 4 -0.3206 17.675184380228238 3.2234957421037884 4.429729374311799 0 0 0
41 1 0.525 20.309282060933413 3.2389460380717208 4.6981782530573275 0 0 0
165 4 -0.3206 16.302640960222327 9.204186614409718 1.9682437105794477 0 0 0
184 4 -0.3206 23.033938566717595 3.4015922136082755 4.913918151365979 0 0 0
167 4 -0.3206 16.25131435485014 4.208384792478105 1.987789081164552 0 0 0
160 3 -0.3206 16.18389780991981 5.7032472977590585 4.295298416663138 0 0 0
169 4 -0.3206 16.44226271244457 10.876032998854862 4.204067689067755 0 0 0
693 4 -0.3206 16.269550547469564 7.273910263311685 6.432616852902972 0 0 0
170 4 -0.3206 17.346803749702243 9.883065453499759 6.666585747037124 0 0 0
175 4 -0.3206 17.711194593368635 6.702380422092857 2.099529294194439 0 0 0
178 2 1.36 19.015353628968672 7.936950332864894 0.12922405504190643 0 0 0
179 4 -0.3206 17.670560047729765 8.290324743681824 4.330613166349175 0 0 0
180 4 -0.3206 20.340999043702848 9.700857449032329 6.9315905496908865 0 0 0
183 2 1.36 18.78835117997632 5.813132281181493 4.550127174413918 0 0 0
187 4 -0.3206 20.41489039754245 6.75580854239906 2.3379027330895923 0 0 0
191 2 1.36 23.111084850030373 6.904127424826239 2.5813531804916217 0 0 0
192 2 1.36 21.638943278106535 7.277485607031981 6.909836348208398 0 0 0
193 2 1.36 19.118885786904773 10.644105602910127 4.666516846751584 0 0 0
196 3 -0.3206 19.079560867257847 9.355892034396348 2.2956711131414025 0 0 0
198 3 -0.3206 21.67311788304262 7.941196471506494 0.15071550409843987 0 0 0
201 4 -0.3206 21.799818230644036 9.372926510539026 2.4067592592227194 0 0 0
205 4 -0.3206 22.96561006940918 5.500187741966297 0.3000238595369989 0 0 0
206 4 -0.3206 19.067763503511376 4.195917737243355 2.2752880349025535 0 0 0
207 4 -0.3206 20.38643241644915 8.235779933244398 4.585170494032399 0 0 0
211 4 -0.3206 23.06765689534904 8.432176105707835 4.828045160143814 0 0 0
213 4 -0.3206 21.74258790685296 10.880415812889408 4.685376381547936 0 0 0
214 4 -0.3206 21.764068568499916 4.207338760349617 2.4406398077617846 0 0 0
217 4 -0.3206 21.555167829969232 5.767166672983807 4.666206524776056 0 0 0
702 3 -0.3206 17.611832898511807 4.733381808447774 6.640848455019459 0 0 0
190 1 0.525 20.313434225872477 5.329165191452503 0.10583621247508988 0 0 0
706 3 -0.3206 20.2643684816126 4.86965765148849 6.981284618778596 0 0 0
185 3 -0.3206 18.95094500520068 7.365349486106455 6.811695019025381 0 0 0
713 3 -0.3206 22.999103263301674 4.979286030350393 7.11152922062482 0 0 0
734 4 -0.3206 23.060317180263393 9.671433248565348 7.260644908537947 0 0 0
510 2 1.36 16.396680434244576 3.479904345064414 8.549450654621532 0 0 0
675 1 0.525 16.630078801885006 8.355237984103066 8.743675278945986 0 0 0
49 4 -0.3206 24.101943118112597 3.067711986751629 0.6740828375463269 0 0 0
210 4 -0.3206 24.157993902675127 8.919453010449761 0.9189977070315692 0 0 0
189 1 0.525 24.183059228304558 10.392579929322979 3.26605259036568 0 0 0
221 3 -0.3206 24.42478667494732 4.595283720668297 2.79923922643574 0 0 0
200 3 -0.3206 24.31064903390441 6.112081589780215 4.993262710385381 0 0 0
218 1 0.525 24.613560598253184 7.552569707280986 7.289824478282279 0 0 0
220 2 1.36 26.669516399199054 3.737112097465081 1.2923976910122041 0 0 0
239 4 -0.3206 30.61834042113963 3.566623184893791 4.551950747353953 0 0 0
59 1 0.525 25.776990939689387 3.863951184983117 5.3650799278918475 0 0 0
711 4 -0.3206 25.65608396650942 9.24489742512165 5.53753881181398 0 0 0
230 3 -0.3206 25.580003964083545 6.378060248651395 0.9898510651163541 0 0 0
215 4 -0.3206 25.554714226891075 7.932655548586466 3.1596265349588952 0 0 0
223 4 -0.3206 29.239153115748085 4.521898926838784 1.827543959912064 0 0 0
224 1 0.525 30.83395845656256 10.518070064767173 6.619074853493949 0 0 0
226 2 1.36 30.94504688816963 7.346050468848727 1.9824198345905026 0 0 0
227 2 1.36 28.032624955681744 8.26769731432528 4.178852059064682 0 0 0
228 2 1.36 26.867632248505867 9.1769341018974 1.0771826841670487 0 0 0
232 3 -0.3206 29.343326093491324 9.607439104294349 2.0363713589328833 0 0 0
234 3 -0.3206 30.677535098385743 10.999147217488908 0.06627395661361683 0 0 0
236 4 -0.3206 30.68312526975688 8.834643740198684 4.3598959118526395 0 0 0
242 4 -0.3206 26.927397300806074 5.494093889881909 3.380307124088083 0 0 0
243 4 -0.3206 28.25597259789428 7.023789854066405 1.5645216192847504 0 0 0
252 4 -0.3206 26.85502037066104 6.748520937341531 5.811075212605276 0 0 0
253 4 -0.3206 29.571791872705326 6.139979578060088 4.012727527685816 0 0 0
257 4 -0.3206 26.87113314177112 10.500848027765391 3.412323955032742 0 0 0
761 3 -0.3206 28.340758246662396 4.508531155124084 5.872803446518698 0 0 0
249 4 -0.3206 28.235711830444938 9.908411879173848 6.209944289299215 0 0 0
769 4 -0.3206 29.445815960505325 7.617449471809699 6.461297547128587 0 0 0
755 2 1.36 30.68389596259033 5.407167712675085 6.682572114469518 0 0 0
727 3 -0.3206 25.72393465062272 5.270893032130794 7.750677264061596 0 0 0
720 1 0.525 25.723575013830892 10.693428194772842 7.83174672898227 0 0 0
751 4 -0.3206 27.002315891545326 8.261405017571875 8.187692666468482 0 0 0
571 4 -0.3206 29.694028420196677 3.566762695841086 8.232675199845218 0 0 0
765 4 -0.3206 28.322619750125245 5.9121265513596315 8.286102219624645 0 0 0
774 4 -0.3206 28.365195116528216 11.409281088173392 8.363035286261711 0 0 0
759 2 1.36 29.5309726109337 9.008708513580595 8.747249454133966 0 0 0
250 4 -0.3206 31.86479230836274 4.86699634129271 2.4580261164012738 0 0 0
63 3 -0.3206 32.05582334732591 3.393418113667315 0.24059978364816959 0 0 0
592 4 -0.3206 34.405643907928344 3.0578407180654956 7.811729051817954 0 0 0
87 4 -0.3206 36.08134114139658 3.2124543295334718 3.5292540236740173 0 0 0
773 4 -0.3206 32.08702765050723 8.007756496326854 6.917444104426349 0 0 0
240 4 -0.3206 32.16348015331672 8.765944991442415 0.15741814012526695 0 0 0
235 3 -0.3206 32.125595811459654 6.443540359961064 4.671335229409291 0 0 0
246 4 -0.3206 32.13052559095728 10.170595986582416 2.503528877189325 0 0 0
255 1 0.525 33.28048270452208 9.347595333669954 4.981117718579643 0 0 0
219 4 -0.3206 33.220114913979785 5.459078472154697 7.2724566031425555 0 0 0
67 4 -0.3206 33.24887439698627 6.311767910565043 0.4366822695622884 0 0 0
247 4 -0.3206 33.466744365413454 7.745495997231422 2.777894030186487 0 0 0
76 3 -0.3206 33.163160190628396 3.9087475089599377 5.045097242013446 0 0 0
65 4 -0.3206 35.66200099743697 4.518246631442112 5.797675784170857 0 0 0
71 4 -0.3206 34.77594758785685 4.131645124664436 0.9977285111634434 0 0 0
80 1 0.525 34.61255774750932 6.96741043751357 5.505895479206852 0 0 0
254 2 1.36 34.35182420802004 5.274051554526529 3.1869456717992515 0 0 0
262 4 -0.3206 35.76577180264292 6.9590637040768435 1.3063624890689418 0 0 0
421 4 -0.3206 -6.0674464148884395 18.749305666166006 2.6072029709756412 1 0 0
423 4 -0.3206 -8.81911935233298 18.846486600544 2.50873547704373 1 0 0
102 4 -0.3206 -2.304803388511228 11.755700307219698 3.852846934526196 0 0 0
264 2 1.36 -3.790558585641197 12.235748906031962 1.4938963312569684 1 0 0
303 4 -0.3206 -6.074939372831333 17.156294545794776 7.219933607532125 0 0 0
282 3 -0.3206 -2.217379211073643 17.583016055449615 3.4930588345345233 0 0 0
286 3 -0.3206 -3.5892113772272904 14.128777425760024 3.427953452567337 0 0 0
288 4 -0.3206 -3.351278204214053 15.974874121482085 5.438433232446561 0 0 0
290 4 -0.3206 -2.3517593147361415 15.732261898233016 1.5453008752659934 0 0 0
298 4 -0.3206 -3.618591900439495 18.241841425294133 1.0854506740434264 0 0 0
305 4 -0.3206 -2.311829456783687 13.552056961787263 5.813630512233377 0 0 0
437 4 -0.3206 -6.03269538722648 16.937408937215817 0.5344575664465938 1 0 0
798 2 1.36 -5.045630192727434 13.19365422342601 5.572828938565951 0 0 0
2508 2 1.36 -7.3769670766319395 19.23605399173357 0.27620895329623113 1 0 1
438 2 1.36 -4.6866680879740175 16.48644671867912 2.8265639346913574 1 0 0
794 4 -0.3206 -4.800056927186734 14.837466390249283 7.547246464186896 0 0 0
412 4 -0.3206 -4.840608358702887 14.547748460709986 0.8576390531044453 1 0 0
797 4 -0.3206 -3.577371172644277 12.181688008469019 7.7439802649603084 0 0 0
433 4 -0.3206 -6.093918275506445 15.570937280099432 4.969114477861605 1 0 0
2712 2 1.36 -7.597756368989502 17.832720291087146 4.728781489099075 1 0 0
431 4 -0.3206 -6.269156895823505 13.691854982346923 2.9427288518411556 1 0 0
417 3 -0.3206 -7.501152763965847 16.18556080682187 2.6237907583286706 1 0 0
304 3 -0.3206 -2.17752694562367 14.947219302639379 8.244334040841215 0 0 0
435 4 -0.3206 -8.566535573871931 16.151946886774734 6.540699820742208 1 0 0
434 3 -0.3206 -7.322395316079751 13.712643783127678 6.797566266541079 1 0 0
104 4 -0.3206 -0.7408589425310443 11.312071795979609 6.299110738709022 0 0 0
642 4 -0.3206 6.594320268937729 11.378348063914745 6.242003712738448 0 0 0
272 4 -0.3206 -1.208732384703145 13.255367722792158 1.8912414165739726 1 0 0
97 2 1.36 -0.9827336297210194 15.197315057547062 3.992466334143346 0 0 0
287 3 -0.3206 -0.807008697646479 16.462864037355047 6.546216818898624 0 0 0
101 4 -0.3206 -0.04159475999868527 15.035993362085534 0.12396125398234863 0 0 0
96 1 0.525 0.046470486746095 13.879646274806806 7.025216741905982 0 0 0
307 4 -0.3206 0.2351750976122852 12.84947667503723 4.287400643642569 0 0 0
289 4 -0.3206 0.19379191131573648 16.96528579524223 1.9643549617512632 0 0 0
99 4 -0.3206 1.4330199772874928 12.75836259070557 0.5399423319856779 0 0 0
284 3 -0.3206 1.544563929512734 15.337187116863564 5.310101526723704 0 0 0
115 2 1.36 2.734605010938197 12.083376630847955 3.0531432337130697 0 0 0
132 4 -0.3206 5.579734597318611 12.507880573488459 3.7234998578843683 0 0 0
295 4 -0.3206 1.368367852108752 14.5698370036228 2.613468538766208 0 0 0
309 2 1.36 2.8431994507307534 16.904388876417077 3.378942798686428 0 0 0
314 3 -0.3206 2.5633330806896866 16.18838869862993 0.769720132083992 0 0 0
316 3 -0.3206 3.7715401207997252 14.45846002737224 3.9650739892331326 0 0 0
317 3 -0.3206 6.556255869311483 14.139132406135 2.027638200843949 0 0 0
319 4 -0.3206 6.407462361545124 15.767853519283662 4.327972277697557 0 0 0
324 4 -0.3206 5.103946321410467 16.312277990220554 1.898846466955013 0 0 0
330 4 -0.3206 3.915248918246772 13.698554452982014 1.264169024962855 0 0 0
332 4 -0.3206 0.3816716236864129 17.678477893199226 4.537647446845156 0 0 0
817 3 -0.3206 5.243017987867931 13.913866337262434 6.148229327300163 0 0 0
810 4 -0.3206 4.136608139432878 16.536472963646016 5.860217045236263 0 0 0
2659 2 1.36 1.4487154259791757 18.710605379276316 0.18537934842067078 0 0 0
650 4 -0.3206 2.1522939961683876 12.661996903937188 6.082186416804456 0 0 0
325 4 -0.3206 3.807645705678461 18.704467646471837 1.4589505370710145 0 0 0
820 2 1.36 3.004547301248354 14.783506767625498 7.590239745366212 0 0 0
648 4 -0.3206 4.0227786715650815 12.282297096578905 7.908236674992532 0 0 0
3098 1 0.525 6.655049802167672 17.41008927394328 6.555499384974904 0 0 0
326 4 -0.3206 5.197865952411423 18.238935922576516 3.907627802741144 0 0 0
814 3 -0.3206 5.434014504263008 15.662460438831058 8.325924330258873 0 0 0
645 4 -0.3206 6.6783990419296355 13.046798058680901 8.473838500735921 0 0 0
821 4 -0.3206 1.859709616530901 17.355910869797228 7.25510445685655 0 0 0
156 2 1.36 12.30124885634972 11.343498267347485 1.3510891678851542 0 0 0
694 4 -0.3206 11.359948155219733 11.633413673740026 5.417567431098267 0 0 0
311 2 1.36 7.36609601579702 15.819859623794736 0.08620727879162506 0 0 0
334 2 1.36 7.438074093595925 17.64514799990406 2.5545290682933146 0 0 0
146 2 1.36 7.541797457354005 11.600240130513422 2.0628429203992003 0 0 0
310 2 1.36 7.703456003361234 13.527016737247246 4.915167797986757 0 0 0
815 3 -0.3206 7.841628309167524 15.016338004447888 6.993083737761656 0 0 0
171 4 -0.3206 15.060164261031764 11.825643347531457 1.813947751142542 0 0 0
323 4 -0.3206 8.809462305292438 15.134587222137108 2.8052192331774735 0 0 0
339 3 -0.3206 9.051816250048361 12.406458257388346 7.034803144048439 0 0 0
329 4 -0.3206 8.704629949466858 13.428452282414241 0.490009472769383 0 0 0
842 3 -0.3206 13.055767848439375 13.867964641663978 5.885443446870507 0 0 0
320 4 -0.3206 8.709732320415961 18.61344259461696 0.4124178092983332 0 0 0
343 4 -0.3206 9.716883888070356 12.531277572347584 3.1514440745984253 0 0 0
347 4 -0.3206 10.291478577226751 14.184129587971661 5.365496880799091 0 0 0
354 3 -0.3206 11.419037144575203 18.997603734490887 0.6751027862756983 0 0 0
336 3 -0.3206 9.968312249262398 16.21965591566295 0.6298506139459408 0 0 0
346 4 -0.3206 10.086432873029677 17.868483829485864 2.8151596914460564 0 0 0
340 2 1.36 15.0629954755263 13.2560583563477 4.232443980768158 0 0 0
342 4 -0.3206 13.959895434115305 14.296517666457067 1.5917860037317642 0 0 0
348 2 1.36 11.401694015021363 15.588395778699965 3.3232006570959705 0 0 0
355 3 -0.3206 12.43566152968964 13.107086830134271 3.427182346071973 0 0 0
361 4 -0.3206 12.61774219666365 16.646988428923404 1.2776817076065399 0 0 0
362 4 -0.3206 11.226785573230531 13.84296231733113 1.1646984837034857 0 0 0
364 4 -0.3206 13.977167577938998 15.700109968223998 4.033316750921309 0 0 0
365 4 -0.3206 12.802455079739495 18.11657653102783 3.7026573419219884 0 0 0
850 4 -0.3206 11.835179249271711 16.481166276370754 5.7958960110631 0 0 0
848 2 1.36 10.26479283843041 15.710147387363508 7.843083453530878 0 0 0
697 4 -0.3206 11.452028791659979 13.338470902170158 7.926165515323976 0 0 0
834 1 0.525 13.217106945812981 15.709532081550849 8.0654399494882 0 0 0
836 4 -0.3206 14.429919832369603 17.392993771876153 6.3154148199223235 0 0 0
2668 4 -0.3206 9.033662858308176 16.533599833896037 5.075326339558121 0 0 0
844 3 -0.3206 14.209143167653197 13.125180869173905 8.208931328188278 0 0 0
351 3 -0.3206 15.282358358321225 16.867086904746582 1.9199077460225087 0 0 0
754 1 0.525 32.3749407578685 11.414480485556531 11.112250228132993 0 0 0
356 3 -0.3206 15.466878123217487 14.975155320334137 6.587285980042463 0 0 0
194 2 1.36 22.65069630198092 11.394087805240668 0.8398865880718013 0 0 0
152 1 0.525 17.71205215346678 11.644146981450973 1.9000282224443032 0 0 0
153 1 0.525 16.514660943708062 12.479902700238792 6.662068280010416 0 0 0
3188 4 -0.3206 19.978647460009725 17.287313246683237 6.22107903741742 0 0 0
363 4 -0.3206 16.59179689461551 16.03356060234877 4.380298968164211 0 0 0
369 4 -0.3206 16.573648870007297 14.30430743322279 2.089113107220107 0 0 0
216 4 -0.3206 19.11109720399627 12.188966694832272 6.776680948016087 0 0 0
345 4 -0.3206 17.841875904891005 13.16953920201922 4.202918723331404 0 0 0
357 4 -0.3206 17.971010408095687 17.124866939590056 2.208317274685192 0 0 0
373 4 -0.3206 18.079160401045467 14.768960305904201 6.396085004526329 0 0 0
383 2 1.36 19.250964088426315 14.454163874997361 2.181671683680384 0 0 0
390 3 -0.3206 20.52597688156295 13.378584882593628 4.5698790516043735 0 0 0
391 3 -0.3206 22.894289829543023 12.922371091342644 3.086589710255092 0 0 0
394 4 -0.3206 21.728230232061406 15.363780401894818 2.535544035141051 0 0 0
398 4 -0.3206 21.50665471143228 13.798554933762606 0.553186955604912 0 0 0
399 4 -0.3206 20.216006035319825 16.517745960481736 0.6744127821946002 0 0 0
400 4 -0.3206 19.259629318827837 15.849189786127205 4.219509991589658 0 0 0
404 4 -0.3206 20.33992137516749 11.914969802965341 2.381761812208553 0 0 0
405 4 -0.3206 21.99208048698929 15.971589342042932 4.902329754005801 0 0 0