Generated by pymatgen.io.lammps.data.LammpsData

5250  atoms

   4  atom types

0.000000 39.407352  xlo xhi
0.000000 39.308664  ylo yhi
0.000000 52.924087  zlo zhi
-19.196134 1.815964 -15.916758  xy xz yz

Masses

1   6.941000
2  54.938045
3  78.960000
4  15.999400

Atoms

1     1  0.5250   3.044219   2.957570  3.726796
2     1  0.5250   1.643834   2.209181  6.083379
3     2  1.3600   5.909953   0.934207  8.205541
4     2  1.3600   4.389539   2.053210  6.029391
5     3 -0.3206   4.305914   0.245176  3.852169
6     3 -0.3206   5.460741   0.758702  0.298934
7     3 -0.3206   3.073019   1.146921  1.706569
8     4 -0.3206   3.125219  -0.323064  6.139726
9     4 -0.3206   5.490516   2.308067  2.535721
10    4 -0.3206   1.543313   0.624096  3.957085
11    4 -0.3206   0.196795  -0.366331  6.043033
12    4 -0.3206   0.251750   1.628872  1.610019
13    4 -0.3206  -0.963310   2.286305  5.980568
14    4 -0.3206   5.686713  -0.657144  5.988007
15    3 -0.3206   6.890447  -0.224897  2.521424
16    4 -0.3206   6.723274   1.293330  4.680890
17    1  0.5250   3.264977   1.324217  8.339718
18    4 -0.3206   4.486346  -1.644426  8.375983
19    4 -0.3206   1.788555  -1.258776  8.353441
20    4 -0.3206   0.535024   1.368685  8.266873
21    4 -0.3206   7.015642   3.056598  6.717540
22    1  0.5250  10.329160   2.853647  2.187695
23    1  0.5250   9.560253   2.502602  6.399836
24    2  1.3600  13.409720   0.419247  6.768940
25    2  1.3600  11.877668   1.725894  4.494376
26    2  1.3600  15.790582  -1.080704  4.482367
27    4 -0.3206  20.019079  19.416862  0.752564
28    4 -0.3206  14.449536   1.585682  4.653108
29    4 -0.3206  10.888627   0.027456  6.283991
30    4 -0.3206  13.144423   2.624316  2.226315
31    4 -0.3206   9.341761   0.894965  3.915703
32    4 -0.3206   8.196217   0.284688  6.888600
33    4 -0.3206   7.875050   2.107755  1.459094
34    4 -0.3206  14.859115   2.893415  6.932491
35    4 -0.3206  12.125260   3.056753  6.807380
36    3 -0.3206  11.626672   0.249193  2.274836
37    3 -0.3206  14.342528   0.063033  2.244736
38    2  1.3600   8.162205  -1.273718  4.764271
39    4 -0.3206   7.164760  -1.913013  8.209957
40    4 -0.3206  13.004017  -0.898679  4.447441
41    1  0.5250  17.490475   2.715346  6.623567
42    2  1.3600  21.379793   0.693909  7.518440
43    2  1.3600  19.826578   2.075704  5.064044
44    3 -0.3206  19.527668   0.591642  2.923915
45    3 -0.3206  20.690202   1.673547  0.515910
46    3 -0.3206  18.092366   1.801961  0.735474
47    4 -0.3206  22.439819   1.799221  5.059828
48    4 -0.3206  18.915028   0.161063  6.704740
49    4 -0.3206  20.912081   3.055416  2.716977
50    4 -0.3206  17.118723   1.146512  4.380830
51    4 -0.3206  16.136310   0.211794  6.790095
52    4 -0.3206  15.701969   2.315067  2.187940
53    4 -0.3206  22.663242   3.166447  7.337599
54    4 -0.3206  21.197453  -0.547147  5.140578
55    4 -0.3206  22.671633  -1.780959  7.408758
56    3 -0.3206  22.264310   0.452306  2.750096
57    4 -0.3206  17.102102  -0.359568  2.001785
58    1  0.5250  26.457582   2.935008  3.043730
59    1  0.5250  24.965085   2.273200  5.456882
60    2  1.3600  29.390909   0.928319  7.552322
61    2  1.3600  27.747212   2.027614  5.251345
62    3 -0.3206  27.623638   0.344694  3.074068
63    3 -0.3206  29.119010   0.924214  0.706408
64    3 -0.3206  26.331510   1.314660  0.767368
65    4 -0.3206  30.546329   1.736514  5.149734
66    4 -0.3206  26.347921  -0.351625  5.538657
67    4 -0.3206  29.180159   2.756654  2.962525
68    4 -0.3206  24.876583   0.809326  3.123984
69    4 -0.3206  24.058746   0.513797  7.280887
70    4 -0.3206  23.455950   1.622235  0.761425
71    4 -0.3206  31.468197   2.139132  1.701426
72    4 -0.3206  29.073886  -0.644475  5.230620
73    1  0.5250  26.621137   1.133990  7.739475
74    4 -0.3206  27.761405  -1.398402  7.732901
75    4 -0.3206  30.504267  -1.703289  7.631645
76    3 -0.3206  30.501478   0.007572  2.895803
77    2  1.3600  23.848070  -0.786905  4.956776
78    2  1.3600  31.836988  -0.912006  5.384652
79    3 -0.3206  25.319720  -2.168421  7.348827
80    1  0.5250  33.067313   2.888193  6.080424
81    2  1.3600  35.866996   2.638864  6.080101
82    3 -0.3206  35.565907   1.017436  3.754537
83    3 -0.3206  34.215423   2.017984  1.592247
84    4 -0.3206  38.351394   0.621367  3.789918
85    4 -0.3206  34.290292   0.296792  6.218614
86    4 -0.3206  36.879457   1.781404  1.509513
87    4 -0.3206  32.924936   1.151775  3.929151
88    4 -0.3206  32.060761   0.736383  7.582420
89    4 -0.3206  36.979664  -0.018266  5.999117
90    3 -0.3206  33.243545  -1.819717  7.512962
91    4 -0.3206  32.784058  -0.455735  1.614326
92    2  1.3600  37.289908   1.490056  8.307411
93    4 -0.3206  38.511635  -1.094505  8.305391
94    1  0.5250  34.576422   1.934653  8.342865
95    4 -0.3206  35.691569  -0.824924  8.427197
96    1  0.5250  -2.060985   9.922174  5.980671
97    2  1.3600  -3.319371  10.810775  3.617610
98    3 -0.3206  -2.123725   4.941034  6.113384
99    4 -0.3206  -2.192087   8.262641  3.734132
100   4 -0.3206  -3.526704   7.480583  6.072886
101   4 -0.3206  -3.552806   9.185472  1.359124
102   4 -0.3206  -4.663668  10.128374  5.932645
103   4 -0.3206  -2.397661   6.646078  1.350497
104   4 -0.3206  -3.188397   8.981708  8.230469
105   4 -0.3206  -1.891320   6.567344  8.295502
106   2  1.3600   0.337898   3.134621  3.732114
107   2  1.3600  -1.207893   4.166809  1.445251
108   3 -0.3206  -0.867826   9.134746  1.393509
109   4 -0.3206  -0.913290   5.669050  3.758069
110   1  0.5250  -0.630209  10.618096  3.676198
111   1  0.5250   5.795799  10.616442  6.526352
112   1  0.5250   1.530016   3.935592  1.465579
113   2  1.3600   4.125279   6.702344  4.579489
114   2  1.3600   2.157287   8.828064  8.213399
115   2  1.3600   0.672778   9.660314  5.908247
116   3 -0.3206   0.448046   8.054191  3.581541
117   3 -0.3206   2.815589   7.557464  2.301371
118   3 -0.3206   5.732104   5.622724  6.817618
119   3 -0.3206   0.425005   4.664248  5.980725
120   4 -0.3206   2.862715   9.229441  4.394628
121   4 -0.3206   2.757508   5.989246  0.158790
122   4 -0.3206  -0.762256   7.320460  6.024448
123   4 -0.3206   1.642979  10.328529  2.179293
124   4 -0.3206   5.334436   7.242622  1.551736
125   4 -0.3206   4.152250   5.062225  2.428603
126   4 -0.3206   2.963377   4.467505  6.099098
127   4 -0.3206   1.953235   7.152252  5.859034
128   4 -0.3206   4.056360   3.409660  0.267767
129   4 -0.3206   5.544846   8.884378  3.931168
130   4 -0.3206   4.355495   8.221550  6.689255
131   4 -0.3206   4.039305   9.815737  1.421194
132   4 -0.3206   3.120152  10.809707  6.623968
133   4 -0.3206   0.208271   6.524670  1.386538
134   4 -0.3206   1.744700   5.449493  3.731805
135   4 -0.3206   5.453353   4.019128  4.637101
136   4 -0.3206   0.728657  11.467159  8.053865
137   4 -0.3206   0.792553   6.368516  8.244761
138   4 -0.3206   3.396681   6.130567  8.274910
139   2  1.3600   6.494352   4.542411  1.545206
140   1  0.5250   6.413402  10.655560  2.186138
141   3 -0.3206   2.011037   3.837199  8.422392
142   4 -0.3206   4.717228   3.655229  8.215976
143   1  0.5250  -0.473774   8.925438  8.317372
144   3 -0.3206  -0.624831   3.874152  8.314506
145   4 -0.3206   6.772508   6.225629  3.899045
146   2  1.3600   4.294017  11.515090  3.955768
147   3 -0.3206   1.521186   8.606459  0.178906
148   4 -0.3206  -8.558839  17.791575  6.057957
149   4 -0.3206  25.810173  15.321896  9.969765
150   4 -0.3206   7.023180   8.032933  6.452669
151   2  1.3600   7.924306   3.523413  3.917408
152   1  0.5250  14.326411  11.205788  2.961458
153   1  0.5250  13.785417  10.481566  6.838184
154   2  1.3600  11.832954   6.683847  4.450984
155   2  1.3600   9.696845   8.190346  6.661761
156   2  1.3600   7.891242   9.386828  4.510515
157   3 -0.3206   7.650179   7.991962  2.202215
158   3 -0.3206  10.414009   7.874369  2.185128
159   3 -0.3206  14.162261   9.684573  0.805058
160   3 -0.3206  13.537393   5.384770  6.922408
161   3 -0.3206   8.320499   5.338734  6.512500
162   4 -0.3206  10.667459   9.242023  4.434421
163   4 -0.3206  28.621586  11.771528 12.131399
164   4 -0.3206   9.087251  10.464284  2.176957
165   4 -0.3206  13.135718   7.587047  2.371369
166   4 -0.3206  11.659585   5.235238  2.194520
167   4 -0.3206  10.368648   4.180731  4.502777
168   4 -0.3206   9.249607   6.761735  4.464137
169   4 -0.3206  13.391351   9.154099  4.425569
170   4 -0.3206  12.411187   8.145625  6.768370
171   4 -0.3206  11.829663  10.280333  2.213488
172   4 -0.3206  10.934285  10.724871  6.742594
173   4 -0.3206  24.455498  12.768851 16.746363
174   4 -0.3206   9.032768   5.419146  2.204458
175   4 -0.3206  13.094635   4.220134  4.514851
176   4 -0.3206   8.394110  10.808635  6.859769
177   4 -0.3206  10.894350   5.644876  6.731152
178   2  1.3600  14.354757   4.978571  2.117413
179   4 -0.3206  14.513507   6.488565  4.595844
180   4 -0.3206  14.955949   7.836731  6.830492
181   1  0.5250   7.382661   9.520862  8.970340
182   1  0.5250  18.247849   3.329509  3.035794
183   2  1.3600  15.884610   3.915958  4.478481
184   4 -0.3206  20.033511   3.478231  7.425859
185   3 -0.3206  16.187527   5.262314  6.871978
186   4 -0.3206  15.529529   6.937453  0.679465
187   4 -0.3206  16.881819   5.889166  2.890557
188   1  0.5250  22.631171  10.620262  3.016302
189   1  0.5250  21.248715   9.985988  5.412129
190   1  0.5250  16.844983   4.286904  0.791082
191   2  1.3600  19.887854   6.934217  5.132300
192   2  1.3600  17.585556   8.618357  7.480475
193   2  1.3600  15.993789   9.756266  5.233084
194   2  1.3600  19.892111  11.145775  3.136553
195   2  1.3600  22.245522   4.168638  0.770031
196   3 -0.3206  15.667415   8.550985  2.910788
197   3 -0.3206  16.776383   9.385163  0.661136
198   3 -0.3206  18.247631   8.137222  2.869564
199   3 -0.3206  22.313989   9.112020  0.687061
200   3 -0.3206  21.510160   5.736903  7.276985
201   4 -0.3206  18.713032   9.562344  5.065363
202   4 -0.3206  18.220193   6.771759  0.608504
203   4 -0.3206  17.107836  10.773082  2.838302
204   4 -0.3206  20.938914   6.828285  0.673628
205   4 -0.3206  19.667126   5.620792  2.779550
206   4 -0.3206  18.425951   4.717024  5.218629
207   4 -0.3206  17.149200   7.249091  5.152271
208   4 -0.3206  19.644677   4.199422  0.493641
209   4 -0.3206  22.334903   5.827085  2.958521
210   4 -0.3206  20.973760   8.406317  3.080410
211   4 -0.3206  20.117326   8.299954  7.294997
212   4 -0.3206  19.516484   9.436754  0.828149
213   4 -0.3206  18.813450  10.887878  7.237602
214   4 -0.3206  21.237198   4.486774  4.955488
215   4 -0.3206  22.412255   7.391816  5.401128
216   4 -0.3206  16.250463  11.256852  7.482320
217   4 -0.3206  18.815380   5.950960  7.639676
218   1  0.5250  22.685925   9.019731  7.645019
219   4 -0.3206  30.699081   3.354924  7.418015
220   2  1.3600  23.685801   3.283161  3.194331
221   3 -0.3206  23.708958   4.906430  5.481213
222   4 -0.3206  23.786937   6.522980  0.735989
223   4 -0.3206  25.084392   5.672081  3.049680
224   1  0.5250  29.327246  10.575926  6.150919
225   1  0.5250  25.013716   3.835888  0.817617
226   2  1.3600  27.907739   6.852866  5.331659
227   2  1.3600  25.359125   8.883433  7.695388
228   2  1.3600  24.051820   9.697087  5.223852
229   2  1.3600  30.229089   4.866000  1.494525
230   3 -0.3206  23.752473   8.042363  2.953419
231   3 -0.3206  25.035882   9.074238  0.834044
232   3 -0.3206  26.517233   7.838702  3.023358
233   3 -0.3206  25.325969   3.790382  7.645754
234   3 -0.3206  30.290296   9.912292  1.571677
235   3 -0.3206  29.613189   5.796720  7.373046
236   4 -0.3206  26.702030   9.618432  5.257539
237   4 -0.3206  26.499374   6.333280  0.690512
238   4 -0.3206  25.404553  10.512302  2.993303
239   4 -0.3206  28.024941   3.499257  7.516545
240   4 -0.3206  28.833631   7.476379  1.624768
241   4 -0.3206  27.828473   5.296541  3.006362
242   4 -0.3206  26.275262   4.584927  5.233135
243   4 -0.3206  25.143462   7.225280  5.365485
244   4 -0.3206  27.799199   3.742031  0.742766
245   4 -0.3206  30.372748   6.382742  3.806400
246   4 -0.3206  29.055776   8.900891  3.894249
247   4 -0.3206  28.137252   8.505967  7.454670
248   4 -0.3206  27.736391  10.135847  1.637888
249   4 -0.3206  26.918318  11.173642  7.590664
250   4 -0.3206  29.186744   4.367453  5.185349
251   4 -0.3206  30.355972   8.008927  6.105512
252   4 -0.3206  24.142234   6.412626  7.755755
253   4 -0.3206  26.824242   6.130160  7.616947
254   2  1.3600  31.621015   3.899763  3.852322
255   1  0.5250  30.666208   9.574307  8.360082
256   4 -0.3206  31.475351   7.256244  1.537272
257   4 -0.3206  24.175564  11.397323  7.448051
258   2  1.3600  35.808267   5.971421  3.779571
259   1  0.5250  34.316593   3.580141  3.865492
260   4 -0.3206  36.954205   3.314946  3.725684
261   3 -0.3206  32.068012   5.332120  6.101342
262   4 -0.3206  33.252353   6.226412  3.803644
263   1  0.5250  32.939476   4.606993  1.584472
264   2  1.3600  31.938988  10.212413  6.030005
265   3 -0.3206  31.724089   8.718688  3.725020
266   3 -0.3206  34.287707   6.975576  1.494012
267   4 -0.3206  34.526842   8.594349  3.771355
268   4 -0.3206  33.084812   9.518726  1.471746
269   4 -0.3206  35.575859   4.299928  1.537525
270   4 -0.3206  34.641897   5.056711  6.169747
271   4 -0.3206  33.234715   7.853983  6.053401
272   4 -0.3206  33.191955  11.062819  3.778125
273   2  1.3600  33.476757   9.441861  8.190777
274   3 -0.3206  33.321703   4.471607  8.437676
275   4 -0.3206  36.164951   4.206766  8.381792
276   4 -0.3206  34.703327   6.811384  8.360914
277   4 -0.3206  31.988246   6.961102  8.358994
278   1  0.5250  -4.579411  18.525064  3.614606
279   1  0.5250  -5.826595  17.654540  5.906202
280   1  0.5250  -2.248986  11.564057  1.367516
281   2  1.3600  -4.893842  11.802371  1.428518
282   3 -0.3206  -3.341781  15.862063  3.611249
283   3 -0.3206  -2.395742  16.442152  0.128789
284   3 -0.3206  -1.874793  11.579237  8.163079
285   3 -0.3206  -4.655992  17.042475  1.334149
286   3 -0.3206  -6.053313  12.759511  6.062644
287   3 -0.3206  -3.324231  12.546405  5.830004
288   4 -0.3206  -4.561439  15.069736  5.950765
289   4 -0.3206  -2.253403  18.047658  2.299121
290   4 -0.3206  -4.736955  13.434211  3.756914
291   4 -0.3206  -6.084048  16.198834  3.780070
292   4 -0.3206  -7.290511  15.338570  6.042566
293   4 -0.3206  -7.506959  17.228000  1.520936
294   4 -0.3206  -3.464447  14.228387  1.432185
295   4 -0.3206  -2.034168  13.270494  3.426022
296   2  1.3600  -1.577587  16.540966  7.964039
297   4 -0.3206  -1.708449  14.796523  5.723632
298   4 -0.3206  -6.130096  14.692512  1.452906
299   4 -0.3206  -3.729044  19.087009  0.168450
300   4 -0.3206  -3.079822  14.149996  8.165755
301   2  1.3600  -3.166357  17.439068  5.891004
302   1  0.5250  -4.273535  16.674799  8.107705
303   4 -0.3206  -7.152909  16.894278  8.276436
304   3 -0.3206  -4.503344  11.723037  8.226878
305   4 -0.3206  -5.911800  14.225397  8.291999
306   3 -0.3206  28.697081  13.429053 14.352236
307   4 -0.3206  -0.585631  12.353158  5.764945
308   3 -0.3206  29.569157  13.698962 10.654060
309   2  1.3600   0.427666  14.457449  4.208252
310   2  1.3600   5.992744  15.961629  6.796678
311   2  1.3600   2.801086  12.577957  1.417111
312   3 -0.3206   3.866123  16.074433  2.064540
313   4 -0.3206  27.409850  12.467723 16.627553
314   3 -0.3206  -1.014707  15.379684  2.116379
315   4 -0.3206  29.999355  12.371847 16.736915
316   3 -0.3206   1.895801  13.474730  6.558293
317   3 -0.3206   4.558031  13.192687  6.455109
318   4 -0.3206  -0.846725  16.906159  4.390567
319   4 -0.3206   3.150912  15.916896  6.339658
320   4 -0.3206   5.353718  18.295596  2.095293
321   4 -0.3206   1.477680  15.104298  1.575420
322   4 -0.3206   0.300505  12.762519  2.206848
323   4 -0.3206   5.501322  14.612078  4.488842
324   4 -0.3206   3.006651  14.212099  3.953970
325   4 -0.3206   1.709870  16.911891  3.802911
326   4 -0.3206   0.660745  15.948032  6.597895
327   4 -0.3206   0.267736  17.692180  1.434216
328   3 -0.3206  27.376579  14.282427 12.217811
329   4 -0.3206   5.155826  13.348346  2.215659
330   4 -0.3206   1.723637  11.781942  4.367618
331   4 -0.3206  24.561699  14.596437 12.166538
332   4 -0.3206  -0.507318  13.981862  8.042366
333   1  0.5250   2.673294  18.667224  2.134601
334   2  1.3600   4.375981  17.282564  4.413248
335   4 -0.3206  25.806578  12.018554 12.074310
336   3 -0.3206   6.733554  15.655132  2.110960
337   4 -0.3206  25.924214  13.522600 14.400027
338   4 -0.3206  29.685062  15.560314 12.919115
339   3 -0.3206   6.043706  12.102479  8.968523
340   2  1.3600  12.095903  11.680421  4.564666
341   4 -0.3206  23.208101  15.506041  9.842233
342   4 -0.3206   9.369760  11.850365  4.460047
343   4 -0.3206   6.702703  12.232687  4.433561
344   1  0.5250  12.965380  12.171158  0.661159
345   4 -0.3206  14.663526  12.483348  5.234908
346   4 -0.3206   6.930065  17.062011  4.530373
347   4 -0.3206   7.250023  13.195335  6.896309
348   2  1.3600   8.281150  14.432884  4.382821
349   2  1.3600  13.747218  16.455088  7.615003
350   2  1.3600  10.649799  12.754895  2.187387
351   3 -0.3206  11.888762  16.038331  2.833487
352   3 -0.3206  13.074888  17.338919  0.445645
353   3 -0.3206  14.590827  16.029293  2.725463
354   3 -0.3206  10.377692  17.432578  0.629449
355   3 -0.3206   9.821995  13.333686  6.671845
356   3 -0.3206  12.486775  13.037018  6.868826
357   4 -0.3206  14.861330  17.273594  5.032101
358   4 -0.3206  14.571015  14.575607  0.625911
359   4 -0.3206  11.156432  15.758673  6.691692
360   4 -0.3206  13.300224  18.592218  2.753817
361   4 -0.3206   9.391119  15.435725  2.070988
362   4 -0.3206   7.914249  13.076068  2.006495
363   4 -0.3206  13.471013  15.097525  5.272665
364   4 -0.3206  10.885503  14.244079  4.392465
365   4 -0.3206   9.593357  16.905746  4.350823
366   4 -0.3206   8.503177  15.816926  6.716758
367   4 -0.3206   8.107787  18.119026  2.074736
368   4 -0.3206  11.816444  14.778678  0.645982
369   4 -0.3206  13.182117  13.646208  2.990131
370   2  1.3600  12.242485  17.578582  5.032432
371   4 -0.3206  21.879008  14.888031 12.273545
372   4 -0.3206  18.205106  13.140237 14.555391
373   4 -0.3206  14.993122  13.886971  7.441310
374   1  0.5250  17.460433  17.965930  5.518655
375   1  0.5250  18.801064  18.512311  3.094414
376   4 -0.3206  15.708995  11.971906  0.633105
377   3 -0.3206  21.464506  11.750978  7.723412
378   4 -0.3206  21.451452  18.356292  3.033945
379   4 -0.3206  22.936019  13.933356  7.475582
380   1  0.5250  21.168315  11.760754  0.779832
381   4 -0.3206  22.693955  12.267936  5.219745
382   1  0.5250  18.990984  16.957591  7.748268
383   2  1.3600  16.213790  14.613746  5.038219
384   2  1.3600  21.716978  16.564766  7.734784
385   2  1.3600  18.505344  12.028912  0.835395
386   3 -0.3206  20.129209  16.007799  3.102653
387   3 -0.3206  21.306174  16.778678  0.675234
388   3 -0.3206  22.755590  15.782351  3.041998
389   3 -0.3206  18.618393  16.917429  0.812109
390   3 -0.3206  17.664676  13.481742  7.089822
391   3 -0.3206  20.004867  12.604131  5.699132
392   4 -0.3206  22.798147  17.304854  5.322465
393   4 -0.3206  22.554732  14.194391  0.802468
394   4 -0.3206  18.841212  15.366288  5.473937
395   4 -0.3206  17.227530  14.373936  0.777834
396   4 -0.3206  15.833353  13.430769  2.851939
397   4 -0.3206  21.565793  14.929700  5.483359
398   4 -0.3206  18.558625  13.623299  3.204207
399   4 -0.3206  17.360726  16.194459  3.119899
400   4 -0.3206  16.522355  16.157158  7.157036
401   4 -0.3206  15.831118  17.251901  0.632187
402   4 -0.3206  19.917869  14.361419  0.860716
403   4 -0.3206  21.387112  13.519415  3.123241
404   4 -0.3206  17.454343  11.984762  4.967329
405   4 -0.3206  20.175979  14.380910  7.829610
406   2  1.3600  20.145258  17.666977  5.438749
407   3 -0.3206  27.031140  12.877739  9.913846
408   1  0.5250  30.483281  11.373889  3.823391
409   2  1.3600  27.813006  11.743119  3.966734
410   4 -0.3206  23.800610  11.524790  0.568978
411   1  0.5250  29.044081  12.488795  1.561220
412   4 -0.3206  30.690786  12.989606  6.065499
413   4 -0.3206  24.032223  12.974155  2.966723
414   2  1.3600  24.301072  14.658832  5.199381
415   2  1.3600  26.261853  12.553914  1.591181
416   3 -0.3206  27.821128  16.674538  3.763577
417   3 -0.3206  30.598559  14.782485  1.538334
418   3 -0.3206  26.521262  17.597022  1.449582
419   3 -0.3206  25.654328  13.697981  7.545280
420   3 -0.3206  27.865430  13.280186  6.010783
421   4 -0.3206  30.679401  16.415310  3.747974
422   4 -0.3206  26.618054  15.722649  6.054191
423   4 -0.3206  29.153792  17.472984  1.586889
424   4 -0.3206  24.964404  15.205436  1.581379
425   4 -0.3206  29.400099  15.720051  6.038531
426   4 -0.3206  26.511468  14.306576  3.734907
427   4 -0.3206  25.170208  16.961392  3.798301
428   4 -0.3206  24.457114  16.346927  7.523757
429   4 -0.3206  23.768645  17.987829  1.651195
430   4 -0.3206  27.733443  15.045078  1.472375
431   4 -0.3206  29.212971  14.023294  3.787942
432   4 -0.3206  25.396824  12.216299  5.277854
433   4 -0.3206  30.903427  14.526578  8.316458
434   3 -0.3206  29.373310  12.223530  8.293295
435   4 -0.3206  28.026140  14.919331  8.282622
436   4 -0.3206  32.133194  11.916432  8.321459
437   4 -0.3206  31.775568  12.285145  1.512842
438   2  1.3600  31.985290  13.729166  3.725820
439   4 -0.3206  -1.774390   1.382209 15.162092
440   3 -0.3206  -1.794313   2.741176 17.463861
441   4 -0.3206   6.030738  -4.508693 15.079711
442   4 -0.3206   3.329048  -4.193854 15.203899
443   4 -0.3206   1.852965  -3.206392 13.072797
444   2  1.3600   4.850428  -1.811971 15.085781
445   2  1.3600  -0.569138   2.211542 12.800104
446   1  0.5250   3.268003  -0.824940 12.907332
447   1  0.5250   1.905213   0.258809 10.628136
448   2  1.3600   0.666775  -3.857470 15.315161
449   2  1.3600   0.878631   1.121722 15.365795
450   3 -0.3206   4.542664  -3.419885 12.906703
451   3 -0.3206   5.820812  -2.727604 10.561038
452   3 -0.3206   3.192550  -2.537459 10.620821
453   4 -0.3206   6.121035  -1.097424 12.695794
454   4 -0.3206   4.885652   1.549343 12.836414
455   4 -0.3206   3.629108   0.697756 15.050888
456   4 -0.3206   4.564952  -0.008881 10.460505
457   4 -0.3206   2.023160  -1.594177 15.295070
458   4 -0.3206   0.657841  -0.436663 13.093930
459   4 -0.3206   2.116638   1.907802 12.967411
460   4 -0.3206   6.118321   2.366678 10.437259
461   4 -0.3206   6.388872   0.564131 15.001990
462   2  1.3600   0.533585  -2.045729 10.815754
463   4 -0.3206   3.458448   2.650072 10.713237
464   4 -0.3206  -0.521292  -1.327852 15.377658
465   4 -0.3206  -0.677300   0.557907 10.626523
466   4 -0.3206   0.913932   2.922682 10.537538
467   2  1.3600   6.145584  -2.918638 17.409666
468   3 -0.3206   1.929002  -5.130199 17.495772
469   4 -0.3206   3.480855  -2.566807 17.511679
470   3 -0.3206   6.345605   2.168599 17.432330
471   4 -0.3206   5.038400  -0.200554 17.391963
472   4 -0.3206   3.722123   2.403460 17.275892
473   1  0.5250   2.273651   0.025019 17.455379
474   3 -0.3206   1.008289   2.862584 17.395598
475   4 -0.3206  20.405060  15.923691 10.180987
476   4 -0.3206  -0.465009   0.278548 17.579038
477   1  0.5250  11.161859   1.583387  8.809461
478   4 -0.3206  12.229912  -0.959003  8.535618
479   4 -0.3206   9.562229  -0.669894  9.093978
480   2  1.3600  12.629792  -1.139784 15.594257
481   2  1.3600   7.605565   1.349527 12.601472
482   4 -0.3206   7.227129  -0.207853 10.372690
483   1  0.5250  11.180998  -0.268072 13.375960
484   1  0.5250   9.808314   0.835719 11.267409
485   2  1.3600   9.002851   0.232875 14.856379
486   3 -0.3206  12.594679  -2.832295 13.466981
487   3 -0.3206  13.689496  -2.055948 10.949515
488   3 -0.3206  11.123932  -1.820043 11.037791
489   4 -0.3206   7.579702  -2.054780 15.030390
490   4 -0.3206  14.927924  -0.911921  9.033786
491   4 -0.3206  13.918591  -0.447525 13.395610
492   4 -0.3206  12.656398   2.123671 13.528451
493   4 -0.3206  11.290628   1.394452 15.900590
494   4 -0.3206   8.451967   2.045170  8.916756
495   4 -0.3206  12.521952   0.577580 11.167692
496   4 -0.3206  10.215847  -2.369502 14.890488
497   4 -0.3206   8.808633  -1.385820 12.647905
498   4 -0.3206   9.983723   2.338313 13.603884
499   4 -0.3206  13.843138   1.797643  9.013168
500   4 -0.3206  14.001963   1.053315 15.738289
501   3 -0.3206  31.019013  12.913367 12.936559
502   2  1.3600   8.601746  -2.885638 10.371692
503   4 -0.3206   7.830654   2.904339 14.965215
504   4 -0.3206  13.858277  -3.911208 15.703531
505   4 -0.3206   8.902770  -3.222579 17.173897
506   4 -0.3206   7.645737  -0.678984 17.261854
507   1  0.5250  10.336152  -0.808719 17.153352
508   3 -0.3206   8.896196   1.785135 17.204816
509   4 -0.3206  11.722711  -3.304349 17.025701
510   2  1.3600  15.279330   0.520201 11.184069
511   4 -0.3206  15.395272   1.883685 13.594695
512   3 -0.3206  15.221576  -2.980310 13.401921
513   4 -0.3206  15.248818  -1.433964 15.630627
514   1  0.5250  19.193648   1.504676  9.112504
515   4 -0.3206  20.427746  -1.201274  9.019569
516   2  1.3600  16.578531  -3.956941 15.607749
517   4 -0.3206  17.748272  -0.934370  9.025967
518   2  1.3600  20.737756  -1.686129 15.829376
519   3 -0.3206  23.519210  -3.505451 13.546925
520   1  0.5250  19.542607  -0.776381 13.492709
521   1  0.5250  17.995091  -1.584589 15.720280
522   1  0.5250  18.034384   0.395992 11.341577
523   2  1.3600  16.607695  -0.563054 13.572941
524   2  1.3600  23.281444   1.071984 12.190209
525   3 -0.3206  20.623410  -3.282303 13.662735
526   3 -0.3206  21.881016  -2.545240 11.482765
527   3 -0.3206  19.239750  -2.273529 11.267058
528   3 -0.3206  16.866004   1.070455 16.005124
529   4 -0.3206  22.925908  -0.548003  9.790388
530   4 -0.3206  22.241937  -0.893061 13.536066
531   4 -0.3206  20.926688   1.759296 13.499635
532   4 -0.3206  19.493916   0.842843 15.777938
533   4 -0.3206  16.536566   1.545242  8.976312
534   4 -0.3206  20.688224   0.321553 11.204245
535   4 -0.3206  18.000523  -3.140829 13.364838
536   4 -0.3206  16.518496  -2.119721 11.241819
537   4 -0.3206  18.170627   1.708857 13.578741
538   4 -0.3206  21.717750   2.187964  9.770369
539   4 -0.3206  22.288313   0.550365 15.900407
540   4 -0.3206  19.377131   2.806582 11.286611
541   4 -0.3206  23.232847   2.643296 14.549537
542   4 -0.3206  19.317790  -4.287804 15.795161
543   4 -0.3206  22.146075  -4.223548 15.804012
544   4 -0.3206  16.645319   3.001187 11.478420
545   4 -0.3206  23.604661  -2.041007 15.806941
546   2  1.3600  24.927376  -4.625604 15.978972
547   4 -0.3206  25.615902  -0.768992  9.556165
548   2  1.3600  28.625518  -1.344163 15.952454
549   3 -0.3206  30.760344  -3.444141 12.267918
550   2  1.3600  24.745495   0.247272 14.395341
551   3 -0.3206  24.672248   1.574933 16.796842
552   4 -0.3206  26.163449   2.399263 13.806443
553   1  0.5250  27.313183  -0.220613 13.877950
554   1  0.5250  26.006545  -1.002962 16.875886
555   1  0.5250  25.899634   0.740492 11.682252
556   2  1.3600  30.930417   1.622314 12.040838
557   3 -0.3206  28.466828  -2.918936 13.690096
558   3 -0.3206  29.428691  -2.321096 10.146338
559   3 -0.3206  27.139468  -1.619439 11.634267
560   4 -0.3206  30.862227  -1.719852 14.411003
561   4 -0.3206  30.816087   0.073895  9.902071
562   4 -0.3206  29.458108  -0.673582 12.319252
563   4 -0.3206  28.320899   1.853543 12.297576
564   4 -0.3206  27.176454   1.201751 16.093540
565   4 -0.3206  24.319068   1.780035  9.539308
566   4 -0.3206  28.109466   0.351987  9.868925
567   4 -0.3206  25.970009  -2.540587 14.444952
568   4 -0.3206  24.588213  -1.532666 12.083632
569   4 -0.3206  29.492563   2.643228  9.797565
570   4 -0.3206  29.721231   0.929465 14.601033
571   4 -0.3206  26.700423   2.808757  9.953191
572   4 -0.3206  27.490726  -3.569662 16.949741
573   4 -0.3206  29.942617  -3.855422 15.847542
574   3 -0.3206  29.656178   2.505920 16.776887
575   4 -0.3206  30.955755  -0.323974 16.769782
576   3 -0.3206  34.677608  -2.845090 10.023210
577   2  1.3600  32.009414  -2.631411  9.884243
578   2  1.3600  36.648274  -0.537246 16.611873
579   2  1.3600  32.400659   0.468261 14.393837
580   3 -0.3206  32.247058   2.206882 16.572937
581   4 -0.3206  33.408399  -0.196416  9.830134
582   4 -0.3206  33.722873   2.947487 14.318245
583   1  0.5250  35.055778   0.433923 14.406866
584   1  0.5250  33.753006  -0.339038 16.673631
585   1  0.5250  33.627470   1.384143 12.122947
586   3 -0.3206  36.388193  -2.139404 14.428341
587   3 -0.3206  37.126632  -1.730420 10.574139
588   3 -0.3206  34.882238  -1.209592 12.144925
589   4 -0.3206  37.306444  -0.230187 12.902740
590   4 -0.3206  36.168572   2.384767 12.916222
591   4 -0.3206  35.213075   1.969041 16.649613
592   4 -0.3206  32.176884   2.450498  9.789639
593   4 -0.3206  35.866479   0.820416 10.692031
594   4 -0.3206  33.625045  -2.076869 14.339311
595   4 -0.3206  32.173178  -0.931174 12.125713
596   3 -0.3206  38.579222  -2.924396 13.022780
597   4 -0.3206  34.928518  -2.925016 16.610931
598   4 -0.3206  37.645251  -3.385760 16.643805
599   4 -0.3206  32.235135  -2.854902 16.693700
600   4 -0.3206  -1.886773   3.062202 10.611271
601   4 -0.3206  -1.806091   4.701785 12.885403
602   1  0.5250  -1.881334   8.235066 10.624784
603   2  1.3600  -3.119782   3.908464 15.212528
604   2  1.3600  -2.978339   8.885568 15.220362
605   2  1.3600  -4.364166   9.853539 12.791329
606   4 -0.3206  -1.642838   6.242392 15.199402
607   4 -0.3206  -3.094192   7.264224 12.895996
608   4 -0.3206  -3.050196  10.731942 10.549231
609   4 -0.3206  -1.752862   9.640739 12.957623
610   4 -0.3206  -5.691724  10.848417 10.461471
611   4 -0.3206  -5.700584   9.123178 15.204112
612   2  1.3600  -3.247235   5.844687 10.567256
613   4 -0.3206  -4.504075   6.435643 15.123982
614   4 -0.3206  -4.651174   8.267381 10.598147
615   4 -0.3206  -1.658613  11.358571 15.090585
616   3 -0.3206  -5.607414  10.659019 17.419736
617   4 -0.3206  -4.248418   8.117976 17.491145
618   1  0.5250  -1.429997   7.925132 17.403966
619   3 -0.3206  -3.014202  10.557014 17.428118