Generated by pymatgen.io.lammps.data.LammpsData

3000  atoms

   4  atom types

0.000000 25.253908  xlo xhi
0.000000 21.870527  ylo yhi
0.000000 62.441795  zlo zhi
-12.626952 0.000000 0.000000  xy xz yz

Masses

1    6.9410
2  151.9640
3   28.0855
4   15.9994

Atoms

1     1 0.0000   1.870885  0.319493  0.989603
2     1 0.0000   1.870885  0.319493 13.477962
3     1 0.0000   1.870885  0.319493 25.966321
4     1 0.0000   1.870885  0.319493 38.454680
5     1 0.0000   1.870885  0.319493 50.943039
6     1 0.0000  -0.654505  4.693599  0.989603
7     1 0.0000  -0.654505  4.693599 13.477962
8     1 0.0000  -0.654505  4.693599 25.966321
9     1 0.0000  -0.654505  4.693599 38.454680
10    1 0.0000  -0.654505  4.693599 50.943039
11    1 0.0000  -3.179895  9.067704  0.989603
12    1 0.0000  -3.179895  9.067704 13.477962
13    1 0.0000  -3.179895  9.067704 25.966321
14    1 0.0000  -3.179895  9.067704 38.454680
15    1 0.0000  -3.179895  9.067704 50.943039
16    1 0.0000  -5.705286 13.441810  0.989603
17    1 0.0000  -5.705286 13.441810 13.477962
18    1 0.0000  -5.705286 13.441810 25.966321
19    1 0.0000  -5.705286 13.441810 38.454680
20    1 0.0000  -5.705286 13.441810 50.943039
21    1 0.0000  -8.230676 17.815915  0.989603
22    1 0.0000  -8.230676 17.815915 13.477962
23    1 0.0000  -8.230676 17.815915 25.966321
24    1 0.0000  -8.230676 17.815915 38.454680
25    1 0.0000  -8.230676 17.815915 50.943039
26    1 0.0000   6.921667  0.319493  0.989603
27    1 0.0000   6.921667  0.319493 13.477962
28    1 0.0000   6.921667  0.319493 25.966321
29    1 0.0000   6.921667  0.319493 38.454680
30    1 0.0000   6.921667  0.319493 50.943039
31    1 0.0000   4.396277  4.693599  0.989603
32    1 0.0000   4.396277  4.693599 13.477962
33    1 0.0000   4.396277  4.693599 25.966321
34    1 0.0000   4.396277  4.693599 38.454680
35    1 0.0000   4.396277  4.693599 50.943039
36    1 0.0000   1.870886  9.067704  0.989603
37    1 0.0000   1.870886  9.067704 13.477962
38    1 0.0000   1.870886  9.067704 25.966321
39    1 0.0000   1.870886  9.067704 38.454680
40    1 0.0000   1.870886  9.067704 50.943039
41    1 0.0000  -0.654504 13.441810  0.989603
42    1 0.0000  -0.654504 13.441810 13.477962
43    1 0.0000  -0.654504 13.441810 25.966321
44    1 0.0000  -0.654504 13.441810 38.454680
45    1 0.0000  -0.654504 13.441810 50.943039
46    1 0.0000  -3.179894 17.815915  0.989603
47    1 0.0000  -3.179894 17.815915 13.477962
48    1 0.0000  -3.179894 17.815915 25.966321
49    1 0.0000  -3.179894 17.815915 38.454680
50    1 0.0000  -3.179894 17.815915 50.943039
51    1 0.0000  11.972448  0.319493  0.989603
52    1 0.0000  11.972448  0.319493 13.477962
53    1 0.0000  11.972448  0.319493 25.966321
54    1 0.0000  11.972448  0.319493 38.454680
55    1 0.0000  11.972448  0.319493 50.943039
56    1 0.0000   9.447058  4.693599  0.989603
57    1 0.0000   9.447058  4.693599 13.477962
58    1 0.0000   9.447058  4.693599 25.966321
59    1 0.0000   9.447058  4.693599 38.454680
60    1 0.0000   9.447058  4.693599 50.943039
61    1 0.0000   6.921668  9.067704  0.989603
62    1 0.0000   6.921668  9.067704 13.477962
63    1 0.0000   6.921668  9.067704 25.966321
64    1 0.0000   6.921668  9.067704 38.454680
65    1 0.0000   6.921668  9.067704 50.943039
66    1 0.0000   4.396277 13.441810  0.989603
67    1 0.0000   4.396277 13.441810 13.477962
68    1 0.0000   4.396277 13.441810 25.966321
69    1 0.0000   4.396277 13.441810 38.454680
70    1 0.0000   4.396277 13.441810 50.943039
71    1 0.0000   1.870887 17.815915  0.989603
72    1 0.0000   1.870887 17.815915 13.477962
73    1 0.0000   1.870887 17.815915 25.966321
74    1 0.0000   1.870887 17.815915 38.454680
75    1 0.0000   1.870887 17.815915 50.943039
76    1 0.0000  17.023230  0.319493  0.989603
77    1 0.0000  17.023230  0.319493 13.477962
78    1 0.0000  17.023230  0.319493 25.966321
79    1 0.0000  17.023230  0.319493 38.454680
80    1 0.0000  17.023230  0.319493 50.943039
81    1 0.0000  14.497840  4.693599  0.989603
82    1 0.0000  14.497840  4.693599 13.477962
83    1 0.0000  14.497840  4.693599 25.966321
84    1 0.0000  14.497840  4.693599 38.454680
85    1 0.0000  14.497840  4.693599 50.943039
86    1 0.0000  11.972449  9.067704  0.989603
87    1 0.0000  11.972449  9.067704 13.477962
88    1 0.0000  11.972449  9.067704 25.966321
89    1 0.0000  11.972449  9.067704 38.454680
90    1 0.0000  11.972449  9.067704 50.943039
91    1 0.0000   9.447059 13.441810  0.989603
92    1 0.0000   9.447059 13.441810 13.477962
93    1 0.0000   9.447059 13.441810 25.966321
94    1 0.0000   9.447059 13.441810 38.454680
95    1 0.0000   9.447059 13.441810 50.943039
96    1 0.0000   6.921669 17.815915  0.989603
97    1 0.0000   6.921669 17.815915 13.477962
98    1 0.0000   6.921669 17.815915 25.966321
99    1 0.0000   6.921669 17.815915 38.454680
100   1 0.0000   6.921669 17.815915 50.943039
101   1 0.0000  22.074011  0.319493  0.989603
102   1 0.0000  22.074011  0.319493 13.477962
103   1 0.0000  22.074011  0.319493 25.966321
104   1 0.0000  22.074011  0.319493 38.454680
105   1 0.0000  22.074011  0.319493 50.943039
106   1 0.0000  19.548621  4.693599  0.989603
107   1 0.0000  19.548621  4.693599 13.477962
108   1 0.0000  19.548621  4.693599 25.966321
109   1 0.0000  19.548621  4.693599 38.454680
110   1 0.0000  19.548621  4.693599 50.943039
111   1 0.0000  17.023231  9.067704  0.989603
112   1 0.0000  17.023231  9.067704 13.477962
113   1 0.0000  17.023231  9.067704 25.966321
114   1 0.0000  17.023231  9.067704 38.454680
115   1 0.0000  17.023231  9.067704 50.943039
116   1 0.0000  14.497841 13.441810  0.989603
117   1 0.0000  14.497841 13.441810 13.477962
118   1 0.0000  14.497841 13.441810 25.966321
119   1 0.0000  14.497841 13.441810 38.454680
120   1 0.0000  14.497841 13.441810 50.943039
121   1 0.0000  11.972450 17.815915  0.989603
122   1 0.0000  11.972450 17.815915 13.477962
123   1 0.0000  11.972450 17.815915 25.966321
124   1 0.0000  11.972450 17.815915 38.454680
125   1 0.0000  11.972450 17.815915 50.943039
126   1 0.0000   3.838652  1.460483  5.152397
127   1 0.0000   3.838652  1.460483 17.640756
128   1 0.0000   3.838652  1.460483 30.129115
129   1 0.0000   3.838652  1.460483 42.617474
130   1 0.0000   3.838652  1.460483 55.105833
131   1 0.0000   1.313262  5.834589  5.152397
132   1 0.0000   1.313262  5.834589 17.640756
133   1 0.0000   1.313262  5.834589 30.129115
134   1 0.0000   1.313262  5.834589 42.617474
135   1 0.0000   1.313262  5.834589 55.105833
136   1 0.0000  -1.212128 10.208694  5.152397
137   1 0.0000  -1.212128 10.208694 17.640756
138   1 0.0000  -1.212128 10.208694 30.129115
139   1 0.0000  -1.212128 10.208694 42.617474
140   1 0.0000  -1.212128 10.208694 55.105833
141   1 0.0000  -3.737519 14.582799  5.152397
142   1 0.0000  -3.737519 14.582799 17.640756
143   1 0.0000  -3.737519 14.582799 30.129115
144   1 0.0000  -3.737519 14.582799 42.617474
145   1 0.0000  -3.737519 14.582799 55.105833
146   1 0.0000  -6.262909 18.956905  5.152397
147   1 0.0000  -6.262909 18.956905 17.640756
148   1 0.0000  -6.262909 18.956905 30.129115
149   1 0.0000  -6.262909 18.956905 42.617474
150   1 0.0000  -6.262909 18.956905 55.105833
151   1 0.0000   8.889434  1.460483  5.152397
152   1 0.0000   8.889434  1.460483 17.640756
153   1 0.0000   8.889434  1.460483 30.129115
154   1 0.0000   8.889434  1.460483 42.617474
155   1 0.0000   8.889434  1.460483 55.105833
156   1 0.0000   6.364043  5.834589  5.152397
157   1 0.0000   6.364043  5.834589 17.640756
158   1 0.0000   6.364043  5.834589 30.129115
159   1 0.0000   6.364043  5.834589 42.617474
160   1 0.0000   6.364043  5.834589 55.105833
161   1 0.0000   3.838653 10.208694  5.152397
162   1 0.0000   3.838653 10.208694 17.640756
163   1 0.0000   3.838653 10.208694 30.129115
164   1 0.0000   3.838653 10.208694 42.617474
165   1 0.0000   3.838653 10.208694 55.105833
166   1 0.0000   1.313263 14.582799  5.152397
167   1 0.0000   1.313263 14.582799 17.640756
168   1 0.0000   1.313263 14.582799 30.129115
169   1 0.0000   1.313263 14.582799 42.617474
170   1 0.0000   1.313263 14.582799 55.105833
171   1 0.0000  -1.212128 18.956905  5.152397
172   1 0.0000  -1.212128 18.956905 17.640756
173   1 0.0000  -1.212128 18.956905 30.129115
174   1 0.0000  -1.212128 18.956905 42.617474
175   1 0.0000  -1.212128 18.956905 55.105833
176   1 0.0000  13.940215  1.460483  5.152397
177   1 0.0000  13.940215  1.460483 17.640756
178   1 0.0000  13.940215  1.460483 30.129115
179   1 0.0000  13.940215  1.460483 42.617474
180   1 0.0000  13.940215  1.460483 55.105833
181   1 0.0000  11.414825  5.834589  5.152397
182   1 0.0000  11.414825  5.834589 17.640756
183   1 0.0000  11.414825  5.834589 30.129115
184   1 0.0000  11.414825  5.834589 42.617474
185   1 0.0000  11.414825  5.834589 55.105833
186   1 0.0000   8.889435 10.208694  5.152397
187   1 0.0000   8.889435 10.208694 17.640756
188   1 0.0000   8.889435 10.208694 30.129115
189   1 0.0000   8.889435 10.208694 42.617474
190   1 0.0000   8.889435 10.208694 55.105833
191   1 0.0000   6.364044 14.582799  5.152397
192   1 0.0000   6.364044 14.582799 17.640756
193   1 0.0000   6.364044 14.582799 30.129115
194   1 0.0000   6.364044 14.582799 42.617474
195   1 0.0000   6.364044 14.582799 55.105833
196   1 0.0000   3.838654 18.956905  5.152397
197   1 0.0000   3.838654 18.956905 17.640756
198   1 0.0000   3.838654 18.956905 30.129115
199   1 0.0000   3.838654 18.956905 42.617474
200   1 0.0000   3.838654 18.956905 55.105833
201   1 0.0000  18.990997  1.460483  5.152397
202   1 0.0000  18.990997  1.460483 17.640756
203   1 0.0000  18.990997  1.460483 30.129115
204   1 0.0000  18.990997  1.460483 42.617474
205   1 0.0000  18.990997  1.460483 55.105833
206   1 0.0000  16.465607  5.834589  5.152397
207   1 0.0000  16.465607  5.834589 17.640756
208   1 0.0000  16.465607  5.834589 30.129115
209   1 0.0000  16.465607  5.834589 42.617474
210   1 0.0000  16.465607  5.834589 55.105833
211   1 0.0000  13.940216 10.208694  5.152397
212   1 0.0000  13.940216 10.208694 17.640756
213   1 0.0000  13.940216 10.208694 30.129115
214   1 0.0000  13.940216 10.208694 42.617474
215   1 0.0000  13.940216 10.208694 55.105833
216   1 0.0000  11.414826 14.582799  5.152397
217   1 0.0000  11.414826 14.582799 17.640756
218   1 0.0000  11.414826 14.582799 30.129115
219   1 0.0000  11.414826 14.582799 42.617474
220   1 0.0000  11.414826 14.582799 55.105833
221   1 0.0000   8.889436 18.956905  5.152397
222   1 0.0000   8.889436 18.956905 17.640756
223   1 0.0000   8.889436 18.956905 30.129115
224   1 0.0000   8.889436 18.956905 42.617474
225   1 0.0000   8.889436 18.956905 55.105833
226   1 0.0000  24.041778  1.460483  5.152397
227   1 0.0000  24.041778  1.460483 17.640756
228   1 0.0000  24.041778  1.460483 30.129115
229   1 0.0000  24.041778  1.460483 42.617474
230   1 0.0000  24.041778  1.460483 55.105833
231   1 0.0000  21.516388  5.834589  5.152397
232   1 0.0000  21.516388  5.834589 17.640756
233   1 0.0000  21.516388  5.834589 30.129115
234   1 0.0000  21.516388  5.834589 42.617474
235   1 0.0000  21.516388  5.834589 55.105833
236   1 0.0000  18.990998 10.208694  5.152397
237   1 0.0000  18.990998 10.208694 17.640756
238   1 0.0000  18.990998 10.208694 30.129115
239   1 0.0000  18.990998 10.208694 42.617474
240   1 0.0000  18.990998 10.208694 55.105833
241   1 0.0000  16.465607 14.582799  5.152397
242   1 0.0000  16.465607 14.582799 17.640756
243   1 0.0000  16.465607 14.582799 30.129115
244   1 0.0000  16.465607 14.582799 42.617474
245   1 0.0000  16.465607 14.582799 55.105833
246   1 0.0000  13.940217 18.956905  5.152397
247   1 0.0000  13.940217 18.956905 17.640756
248   1 0.0000  13.940217 18.956905 30.129115
249   1 0.0000  13.940217 18.956905 42.617474
250   1 0.0000  13.940217 18.956905 55.105833
251   1 0.0000   1.866643  2.594124  9.315179
252   1 0.0000   1.866643  2.594124 21.803538
253   1 0.0000   1.866643  2.594124 34.291897
254   1 0.0000   1.866643  2.594124 46.780256
255   1 0.0000   1.866643  2.594124 59.268615
256   1 0.0000  -0.658747  6.968230  9.315179
257   1 0.0000  -0.658747  6.968230 21.803538
258   1 0.0000  -0.658747  6.968230 34.291897
259   1 0.0000  -0.658747  6.968230 46.780256
260   1 0.0000  -0.658747  6.968230 59.268615
261   1 0.0000  -3.184138 11.342335  9.315179
262   1 0.0000  -3.184138 11.342335 21.803538
263   1 0.0000  -3.184138 11.342335 34.291897
264   1 0.0000  -3.184138 11.342335 46.780256
265   1 0.0000  -3.184138 11.342335 59.268615
266   1 0.0000  -5.709528 15.716441  9.315179
267   1 0.0000  -5.709528 15.716441 21.803538
268   1 0.0000  -5.709528 15.716441 34.291897
269   1 0.0000  -5.709528 15.716441 46.780256
270   1 0.0000  -5.709528 15.716441 59.268615
271   1 0.0000  -8.234918 20.090546  9.315179
272   1 0.0000  -8.234918 20.090546 21.803538
273   1 0.0000  -8.234918 20.090546 34.291897
274   1 0.0000  -8.234918 20.090546 46.780256
275   1 0.0000  -8.234918 20.090546 59.268615
276   1 0.0000   6.917424  2.594124  9.315179
277   1 0.0000   6.917424  2.594124 21.803538
278   1 0.0000   6.917424  2.594124 34.291897
279   1 0.0000   6.917424  2.594124 46.780256
280   1 0.0000   6.917424  2.594124 59.268615
281   1 0.0000   4.392034  6.968230  9.315179
282   1 0.0000   4.392034  6.968230 21.803538
283   1 0.0000   4.392034  6.968230 34.291897
284   1 0.0000   4.392034  6.968230 46.780256
285   1 0.0000   4.392034  6.968230 59.268615
286   1 0.0000   1.866644 11.342335  9.315179
287   1 0.0000   1.866644 11.342335 21.803538
288   1 0.0000   1.866644 11.342335 34.291897
289   1 0.0000   1.866644 11.342335 46.780256
290   1 0.0000   1.866644 11.342335 59.268615
291   1 0.0000  -0.658747 15.716441  9.315179
292   1 0.0000  -0.658747 15.716441 21.803538
293   1 0.0000  -0.658747 15.716441 34.291897
294   1 0.0000  -0.658747 15.716441 46.780256
295   1 0.0000  -0.658747 15.716441 59.268615
296   1 0.0000  -3.184137 20.090546  9.315179
297   1 0.0000  -3.184137 20.090546 21.803538
298   1 0.0000  -3.184137 20.090546 34.291897
299   1 0.0000  -3.184137 20.090546 46.780256
300   1 0.0000  -3.184137 20.090546 59.268615
301   1 0.0000  11.968206  2.594124  9.315179
302   1 0.0000  11.968206  2.594124 21.803538
303   1 0.0000  11.968206  2.594124 34.291897
304   1 0.0000  11.968206  2.594124 46.780256
305   1 0.0000  11.968206  2.594124 59.268615
306   1 0.0000   9.442816  6.968230  9.315179
307   1 0.0000   9.442816  6.968230 21.803538
308   1 0.0000   9.442816  6.968230 34.291897
309   1 0.0000   9.442816  6.968230 46.780256
310   1 0.0000   9.442816  6.968230 59.268615
311   1 0.0000   6.917425 11.342335  9.315179
312   1 0.0000   6.917425 11.342335 21.803538
313   1 0.0000   6.917425 11.342335 34.291897
314   1 0.0000   6.917425 11.342335 46.780256
315   1 0.0000   6.917425 11.342335 59.268615
316   1 0.0000   4.392035 15.716441  9.315179
317   1 0.0000   4.392035 15.716441 21.803538
318   1 0.0000   4.392035 15.716441 34.291897
319   1 0.0000   4.392035 15.716441 46.780256
320   1 0.0000   4.392035 15.716441 59.268615
321   1 0.0000   1.866645 20.090546  9.315179
322   1 0.0000   1.866645 20.090546 21.803538
323   1 0.0000   1.866645 20.090546 34.291897
324   1 0.0000   1.866645 20.090546 46.780256
325   1 0.0000   1.866645 20.090546 59.268615
326   1 0.0000  17.018988  2.594124  9.315179
327   1 0.0000  17.018988  2.594124 21.803538
328   1 0.0000  17.018988  2.594124 34.291897
329   1 0.0000  17.018988  2.594124 46.780256
330   1 0.0000  17.018988  2.594124 59.268615
331   1 0.0000  14.493597  6.968230  9.315179
332   1 0.0000  14.493597  6.968230 21.803538
333   1 0.0000  14.493597  6.968230 34.291897
334   1 0.0000  14.493597  6.968230 46.780256
335   1 0.0000  14.493597  6.968230 59.268615
336   1 0.0000  11.968207 11.342335  9.315179
337   1 0.0000  11.968207 11.342335 21.803538
338   1 0.0000  11.968207 11.342335 34.291897
339   1 0.0000  11.968207 11.342335 46.780256
340   1 0.0000  11.968207 11.342335 59.268615
341   1 0.0000   9.442817 15.716441  9.315179
342   1 0.0000   9.442817 15.716441 21.803538
343   1 0.0000   9.442817 15.716441 34.291897
344   1 0.0000   9.442817 15.716441 46.780256
345   1 0.0000   9.442817 15.716441 59.268615
346   1 0.0000   6.917426 20.090546  9.315179
347   1 0.0000   6.917426 20.090546 21.803538
348   1 0.0000   6.917426 20.090546 34.291897
349   1 0.0000   6.917426 20.090546 46.780256
350   1 0.0000   6.917426 20.090546 59.268615
351   1 0.0000  22.069769  2.594124  9.315179
352   1 0.0000  22.069769  2.594124 21.803538
353   1 0.0000  22.069769  2.594124 34.291897
354   1 0.0000  22.069769  2.594124 46.780256
355   1 0.0000  22.069769  2.594124 59.268615
356   1 0.0000  19.544379  6.968230  9.315179
357   1 0.0000  19.544379  6.968230 21.803538
358   1 0.0000  19.544379  6.968230 34.291897
359   1 0.0000  19.544379  6.968230 46.780256
360   1 0.0000  19.544379  6.968230 59.268615
361   1 0.0000  17.018988 11.342335  9.315179
362   1 0.0000  17.018988 11.342335 21.803538
363   1 0.0000  17.018988 11.342335 34.291897
364   1 0.0000  17.018988 11.342335 46.780256
365   1 0.0000  17.018988 11.342335 59.268615
366   1 0.0000  14.493598 15.716441  9.315179
367   1 0.0000  14.493598 15.716441 21.803538
368   1 0.0000  14.493598 15.716441 34.291897
369   1 0.0000  14.493598 15.716441 46.780256
370   1 0.0000  14.493598 15.716441 59.268615
371   1 0.0000  11.968208 20.090546  9.315179
372   1 0.0000  11.968208 20.090546 21.803538
373   1 0.0000  11.968208 20.090546 34.291897
374   1 0.0000  11.968208 20.090546 46.780256
375   1 0.0000  11.968208 20.090546 59.268615
376   1 0.0000  -0.654510  4.054612  7.335962
377   1 0.0000  -0.654510  4.054612 19.824321
378   1 0.0000  -0.654510  4.054612 32.312680
379   1 0.0000  -0.654510  4.054612 44.801039
380   1 0.0000  -0.654510  4.054612 57.289398
381   1 0.0000  -3.179900  8.428717  7.335962
382   1 0.0000  -3.179900  8.428717 19.824321
383   1 0.0000  -3.179900  8.428717 32.312680
384   1 0.0000  -3.179900  8.428717 44.801039
385   1 0.0000  -3.179900  8.428717 57.289398
386   1 0.0000  -5.705291 12.802823  7.335962
387   1 0.0000  -5.705291 12.802823 19.824321
388   1 0.0000  -5.705291 12.802823 32.312680
389   1 0.0000  -5.705291 12.802823 44.801039
390   1 0.0000  -5.705291 12.802823 57.289398
391   1 0.0000  -8.230681 17.176928  7.335962
392   1 0.0000  -8.230681 17.176928 19.824321
393   1 0.0000  -8.230681 17.176928 32.312680
394   1 0.0000  -8.230681 17.176928 44.801039
395   1 0.0000  -8.230681 17.176928 57.289398
396   1 0.0000 -10.756071 21.551034  7.335962
397   1 0.0000 -10.756071 21.551034 19.824321
398   1 0.0000 -10.756071 21.551034 32.312680
399   1 0.0000 -10.756071 21.551034 44.801039
400   1 0.0000 -10.756071 21.551034 57.289398
401   1 0.0000   4.396271  4.054612  7.335962
402   1 0.0000   4.396271  4.054612 19.824321
403   1 0.0000   4.396271  4.054612 32.312680
404   1 0.0000   4.396271  4.054612 44.801039
405   1 0.0000   4.396271  4.054612 57.289398
406   1 0.0000   1.870881  8.428717  7.335962
407   1 0.0000   1.870881  8.428717 19.824321
408   1 0.0000   1.870881  8.428717 32.312680
409   1 0.0000   1.870881  8.428717 44.801039
410   1 0.0000   1.870881  8.428717 57.289398
411   1 0.0000  -0.654509 12.802823  7.335962
412   1 0.0000  -0.654509 12.802823 19.824321
413   1 0.0000  -0.654509 12.802823 32.312680
414   1 0.0000  -0.654509 12.802823 44.801039
415   1 0.0000  -0.654509 12.802823 57.289398
416   1 0.0000  -3.179900 17.176928  7.335962
417   1 0.0000  -3.179900 17.176928 19.824321
418   1 0.0000  -3.179900 17.176928 32.312680
419   1 0.0000  -3.179900 17.176928 44.801039
420   1 0.0000  -3.179900 17.176928 57.289398
421   1 0.0000  -5.705290 21.551034  7.335962
422   1 0.0000  -5.705290 21.551034 19.824321
423   1 0.0000  -5.705290 21.551034 32.312680
424   1 0.0000  -5.705290 21.551034 44.801039
425   1 0.0000  -5.705290 21.551034 57.289398
426   1 0.0000   9.447053  4.054612  7.335962
427   1 0.0000   9.447053  4.054612 19.824321
428   1 0.0000   9.447053  4.054612 32.312680
429   1 0.0000   9.447053  4.054612 44.801039
430   1 0.0000   9.447053  4.054612 57.289398
431   1 0.0000   6.921663  8.428717  7.335962
432   1 0.0000   6.921663  8.428717 19.824321
433   1 0.0000   6.921663  8.428717 32.312680
434   1 0.0000   6.921663  8.428717 44.801039
435   1 0.0000   6.921663  8.428717 57.289398
436   1 0.0000   4.396272 12.802823  7.335962
437   1 0.0000   4.396272 12.802823 19.824321
438   1 0.0000   4.396272 12.802823 32.312680
439   1 0.0000   4.396272 12.802823 44.801039
440   1 0.0000   4.396272 12.802823 57.289398
441   1 0.0000   1.870882 17.176928  7.335962
442   1 0.0000   1.870882 17.176928 19.824321
443   1 0.0000   1.870882 17.176928 32.312680
444   1 0.0000   1.870882 17.176928 44.801039
445   1 0.0000   1.870882 17.176928 57.289398
446   1 0.0000  -0.654508 21.551034  7.335962
447   1 0.0000  -0.654508 21.551034 19.824321
448   1 0.0000  -0.654508 21.551034 32.312680
449   1 0.0000  -0.654508 21.551034 44.801039
450   1 0.0000  -0.654508 21.551034 57.289398
451   1 0.0000  14.497834  4.054612  7.335962
452   1 0.0000  14.497834  4.054612 19.824321
453   1 0.0000  14.497834  4.054612 32.312680
454   1 0.0000  14.497834  4.054612 44.801039
455   1 0.0000  14.497834  4.054612 57.289398
456   1 0.0000  11.972444  8.428717  7.335962
457   1 0.0000  11.972444  8.428717 19.824321
458   1 0.0000  11.972444  8.428717 32.312680
459   1 0.0000  11.972444  8.428717 44.801039
460   1 0.0000  11.972444  8.428717 57.289398
461   1 0.0000   9.447054 12.802823  7.335962
462   1 0.0000   9.447054 12.802823 19.824321
463   1 0.0000   9.447054 12.802823 32.312680
464   1 0.0000   9.447054 12.802823 44.801039
465   1 0.0000   9.447054 12.802823 57.289398
466   1 0.0000   6.921664 17.176928  7.335962
467   1 0.0000   6.921664 17.176928 19.824321
468   1 0.0000   6.921664 17.176928 32.312680
469   1 0.0000   6.921664 17.176928 44.801039
470   1 0.0000   6.921664 17.176928 57.289398
471   1 0.0000   4.396273 21.551034  7.335962
472   1 0.0000   4.396273 21.551034 19.824321
473   1 0.0000   4.396273 21.551034 32.312680
474   1 0.0000   4.396273 21.551034 44.801039
475   1 0.0000   4.396273 21.551034 57.289398
476   1 0.0000  19.548616  4.054612  7.335962
477   1 0.0000  19.548616  4.054612 19.824321
478   1 0.0000  19.548616  4.054612 32.312680
479   1 0.0000  19.548616  4.054612 44.801039
480   1 0.0000  19.548616  4.054612 57.289398
481   1 0.0000  17.023226  8.428717  7.335962
482   1 0.0000  17.023226  8.428717 19.824321
483   1 0.0000  17.023226  8.428717 32.312680
484   1 0.0000  17.023226  8.428717 44.801039
485   1 0.0000  17.023226  8.428717 57.289398
486   1 0.0000  14.497835 12.802823  7.335962
487   1 0.0000  14.497835 12.802823 19.824321
488   1 0.0000  14.497835 12.802823 32.312680
489   1 0.0000  14.497835 12.802823 44.801039
490   1 0.0000  14.497835 12.802823 57.289398
491   1 0.0000  11.972445 17.176928  7.335962
492   1 0.0000  11.972445 17.176928 19.824321
493   1 0.0000  11.972445 17.176928 32.312680
494   1 0.0000  11.972445 17.176928 44.801039
495   1 0.0000  11.972445 17.176928 57.289398
496   1 0.0000   9.447055 21.551034  7.335962
497   1 0.0000   9.447055 21.551034 19.824321
498   1 0.0000   9.447055 21.551034 32.312680
499   1 0.0000   9.447055 21.551034 44.801039
500   1 0.0000   9.447055 21.551034 57.289398
501   1 0.0000   1.313257  2.913622  3.173180
502   1 0.0000   1.313257  2.913622 15.661539
503   1 0.0000   1.313257  2.913622 28.149898
504   1 0.0000   1.313257  2.913622 40.638257
505   1 0.0000   1.313257  2.913622 53.126616
506   1 0.0000  -1.212134  7.287728  3.173180
507   1 0.0000  -1.212134  7.287728 15.661539
508   1 0.0000  -1.212134  7.287728 28.149898
509   1 0.0000  -1.212134  7.287728 40.638257
510   1 0.0000  -1.212134  7.287728 53.126616
511   1 0.0000  -3.737524 11.661833  3.173180
512   1 0.0000  -3.737524 11.661833 15.661539
513   1 0.0000  -3.737524 11.661833 28.149898
514   1 0.0000  -3.737524 11.661833 40.638257
515   1 0.0000  -3.737524 11.661833 53.126616
516   1 0.0000  -6.262914 16.035938  3.173180
517   1 0.0000  -6.262914 16.035938 15.661539
518   1 0.0000  -6.262914 16.035938 28.149898
519   1 0.0000  -6.262914 16.035938 40.638257
520   1 0.0000  -6.262914 16.035938 53.126616
521   1 0.0000  -8.788305 20.410044  3.173180
522   1 0.0000  -8.788305 20.410044 15.661539
523   1 0.0000  -8.788305 20.410044 28.149898
524   1 0.0000  -8.788305 20.410044 40.638257
525   1 0.0000  -8.788305 20.410044 53.126616
526   1 0.0000   6.364038  2.913622  3.173180
527   1 0.0000   6.364038  2.913622 15.661539
528   1 0.0000   6.364038  2.913622 28.149898
529   1 0.0000   6.364038  2.913622 40.638257
530   1 0.0000   6.364038  2.913622 53.126616
531   1 0.0000   3.838648  7.287728  3.173180
532   1 0.0000   3.838648  7.287728 15.661539
533   1 0.0000   3.838648  7.287728 28.149898
534   1 0.0000   3.838648  7.287728 40.638257
535   1 0.0000   3.838648  7.287728 53.126616
536   1 0.0000   1.313257 11.661833  3.173180
537   1 0.0000   1.313257 11.661833 15.661539
538   1 0.0000   1.313257 11.661833 28.149898
539   1 0.0000   1.313257 11.661833 40.638257
540   1 0.0000   1.313257 11.661833 53.126616
541   1 0.0000  -1.212133 16.035938  3.173180
542   1 0.0000  -1.212133 16.035938 15.661539
543   1 0.0000  -1.212133 16.035938 28.149898
544   1 0.0000  -1.212133 16.035938 40.638257
545   1 0.0000  -1.212133 16.035938 53.126616
546   1 0.0000  -3.737523 20.410044  3.173180
547   1 0.0000  -3.737523 20.410044 15.661539
548   1 0.0000  -3.737523 20.410044 28.149898
549   1 0.0000  -3.737523 20.410044 40.638257
550   1 0.0000  -3.737523 20.410044 53.126616
551   1 0.0000  11.414820  2.913622  3.173180
552   1 0.0000  11.414820  2.913622 15.661539
553   1 0.0000  11.414820  2.913622 28.149898
554   1 0.0000  11.414820  2.913622 40.638257
555   1 0.0000  11.414820  2.913622 53.126616
556   1 0.0000   8.889429  7.287728  3.173180
557   1 0.0000   8.889429  7.287728 15.661539
558   1 0.0000   8.889429  7.287728 28.149898
559   1 0.0000   8.889429  7.287728 40.638257
560   1 0.0000   8.889429  7.287728 53.126616
561   1 0.0000   6.364039 11.661833  3.173180
562   1 0.0000   6.364039 11.661833 15.661539
563   1 0.0000   6.364039 11.661833 28.149898
564   1 0.0000   6.364039 11.661833 40.638257
565   1 0.0000   6.364039 11.661833 53.126616
566   1 0.0000   3.838649 16.035938  3.173180
567   1 0.0000   3.838649 16.035938 15.661539
568   1 0.0000   3.838649 16.035938 28.149898
569   1 0.0000   3.838649 16.035938 40.638257
570   1 0.0000   3.838649 16.035938 53.126616
571   1 0.0000   1.313258 20.410044  3.173180
572   1 0.0000   1.313258 20.410044 15.661539
573   1 0.0000   1.313258 20.410044 28.149898
574   1 0.0000   1.313258 20.410044 40.638257
575   1 0.0000   1.313258 20.410044 53.126616
576   1 0.0000  16.465601  2.913622  3.173180
577   1 0.0000  16.465601  2.913622 15.661539
578   1 0.0000  16.465601  2.913622 28.149898
579   1 0.0000  16.465601  2.913622 40.638257
580   1 0.0000  16.465601  2.913622 53.126616
581   1 0.0000  13.940211  7.287728  3.173180
582   1 0.0000  13.940211  7.287728 15.661539
583   1 0.0000  13.940211  7.287728 28.149898
584   1 0.0000  13.940211  7.287728 40.638257
585   1 0.0000  13.940211  7.287728 53.126616
586   1 0.0000  11.414821 11.661833  3.173180
587   1 0.0000  11.414821 11.661833 15.661539
588   1 0.0000  11.414821 11.661833 28.149898
589   1 0.0000  11.414821 11.661833 40.638257
590   1 0.0000  11.414821 11.661833 53.126616
591   1 0.0000   8.889430 16.035938  3.173180
592   1 0.0000   8.889430 16.035938 15.661539
593   1 0.0000   8.889430 16.035938 28.149898
594   1 0.0000   8.889430 16.035938 40.638257
595   1 0.0000   8.889430 16.035938 53.126616
596   1 0.0000   6.364040 20.410044  3.173180
597   1 0.0000   6.364040 20.410044 15.661539
598   1 0.0000   6.364040 20.410044 28.149898
599   1 0.0000   6.364040 20.410044 40.638257
600   1 0.0000   6.364040 20.410044 53.126616
601   1 0.0000  21.516383  2.913622  3.173180
602   1 0.0000  21.516383  2.913622 15.661539
603   1 0.0000  21.516383  2.913622 28.149898
604   1 0.0000  21.516383  2.913622 40.638257
605   1 0.0000  21.516383  2.913622 53.126616
606   1 0.0000  18.990992  7.287728  3.173180
607   1 0.0000  18.990992  7.287728 15.661539
608   1 0.0000  18.990992  7.287728 28.149898
609   1 0.0000  18.990992  7.287728 40.638257
610   1 0.0000  18.990992  7.287728 53.126616
611   1 0.0000  16.465602 11.661833  3.173180
612   1 0.0000  16.465602 11.661833 15.661539
613   1 0.0000  16.465602 11.661833 28.149898
614   1 0.0000  16.465602 11.661833 40.638257
615   1 0.0000  16.465602 11.661833 53.126616
616   1 0.0000  13.940212 16.035938  3.173180
617   1 0.0000  13.940212 16.035938 15.661539
618   1 0.0000  13.940212 16.035938 28.149898
619   1 0.0000  13.940212 16.035938 40.638257
620   1 0.0000  13.940212 16.035938 53.126616
621   1 0.0000  11.414821 20.410044  3.173180
622   1 0.0000  11.414821 20.410044 15.661539
623   1 0.0000  11.414821 20.410044 28.149898
624   1 0.0000  11.414821 20.410044 40.638257
625   1 0.0000  11.414821 20.410044 53.126616
626   1 0.0000  -0.658753  1.779981 11.498756
627   1 0.0000  -0.658753  1.779981 23.987115
628   1 0.0000  -0.658753  1.779981 36.475474
629   1 0.0000  -0.658753  1.779981 48.963833
630   1 0.0000  -0.658753  1.779981 61.452192
631   1 0.0000  -3.184143  6.154086 11.498756
632   1 0.0000  -3.184143  6.154086 23.987115
633   1 0.0000  -3.184143  6.154086 36.475474
634   1 0.0000  -3.184143  6.154086 48.963833
635   1 0.0000  -3.184143  6.154086 61.452192
636   1 0.0000  -5.709534 10.528192 11.498756
637   1 0.0000  -5.709534 10.528192 23.987115
638   1 0.0000  -5.709534 10.528192 36.475474
639   1 0.0000  -5.709534 10.528192 48.963833
640   1 0.0000  -5.709534 10.528192 61.452192
641   1 0.0000  -8.234924 14.902297 11.498756
642   1 0.0000  -8.234924 14.902297 23.987115
643   1 0.0000  -8.234924 14.902297 36.475474
644   1 0.0000  -8.234924 14.902297 48.963833
645   1 0.0000  -8.234924 14.902297 61.452192
646   1 0.0000 -10.760314 19.276403 11.498756