LAMMPS data file via write_data, version 29 Aug 2024, timestep = 87001, units = metal

3000 atoms
4 atom types

-51.9111999086722 77.16510790963082 xlo xhi
-44.956420178747564 66.82694717976224 ylo yhi
-128.35354048628884 190.79533548613443 zlo zhi
-64.53814368665968 0 0 xy xz yz

Masses

1 6.941
2 151.964
3 28.0855
4 15.9994

Atoms # charge

95 1 1 -16.07882375835174 -37.21863312811096 -121.83845348938226 0 1 1
2956 4 -2 -14.364641034059701 -36.411134556958615 -123.05635989071729 0 1 0
2341 4 -2 -54.71771404807284 -26.906189009168195 -123.99366739518845 2 2 1
1341 3 4 -54.53931347309462 -27.28240655413378 -121.95196068044797 2 2 1
1067 2 0 -62.81897800627227 -17.150844196493193 -126.88509312857518 -1 0 1
915 2 0 -65.99015980240434 -7.135578436143291 -124.69542757704001 1 0 1
754 2 0 -15.687216224910514 -5.645434221616156 -122.70919545629052 -2 -2 1
1643 4 -2 -73.70976990359458 4.846807134244635 -127.45300383311726 0 2 1
224 1 1 -71.30036047288465 4.804214294901222 -128.03164530449448 1 2 1
564 1 1 -66.17917383010395 6.428717028603707 -121.70338876551577 0 -2 1
775 2 0 -47.11269877805137 6.919290954654258 -128.11400118409134 0 -1 0
1085 2 0 -51.609760520011726 8.1186099056996 -127.45352374855011 2 0 1
856 2 0 -70.10872770658028 25.229425682329264 -122.81173967154044 1 -1 0
767 2 0 -84.90167898030501 45.50444537664676 -124.84997547028502 0 -1 0
1114 2 0 -85.11694503278956 50.257724614871876 -121.5567172475466 2 1 1
2223 4 -2 -62.30540117257193 51.29080066297456 -123.38770581335488 0 -2 2
1107 2 0 -96.81011332116928 55.365938446970674 -125.8890440368433 -2 -2 0
1065 2 0 -92.75880604896307 56.7383664788907 -123.4461803534614 0 0 1
340 1 1 -60.43834243022337 51.95949255676872 -122.26213723746092 -1 -2 2
2174 4 -2 -50.53208571441802 54.292997482470895 -121.37141907804252 -3 -2 1
474 1 1 -49.143980222978925 56.18964329699068 -122.12488259925043 -3 -2 1
805 2 0 -55.5181335032652 -30.54245209156244 -116.90239553061512 1 2 1
486 1 1 -19.922695093784213 -37.279471745850515 -114.48937302406326 2 4 0
2566 4 -2 -52.662119582709416 -27.453349468408426 -121.00980968552747 2 2 1
316 1 1 -54.353520750216916 -27.656966238266715 -119.24394452143814 2 2 1
2091 4 -2 -55.42860980915769 -28.97049765798978 -121.08638617664315 2 2 1
1936 4 -2 -55.31371767034599 -25.84543448877433 -120.61418767755211 2 2 1
810 2 0 -33.63518459397989 -18.154088906882272 -117.76098127562203 -1 -3 2
2319 4 -2 -64.09971008162204 7.110709936301824 -120.83515541259048 0 -2 1
609 1 1 -24.262463273500334 5.473676727588561 -114.63187689805326 0 1 0
1519 4 -2 -18.45267619291767 2.041448597417876 -114.53460963041174 -1 1 0
2264 4 -2 -22.094009794026416 4.095990059731079 -114.39752567194908 -1 1 0
877 2 0 -65.69048364161392 10.76384495435201 -117.68850802186924 -1 -1 2
1012 2 0 -69.69854478887675 17.866430319029604 -116.64176611290657 -1 1 0
2709 4 -2 -100.76903403542516 48.537101187768414 -115.72561090110685 1 0 1
889 2 0 -99.47795758742456 54.45128022104508 -114.74387670187431 1 1 1
949 2 0 -95.98495296464344 56.045787738977836 -114.66587241742407 1 0 1
1429 3 4 -50.77830205698368 55.75270870365475 -119.82172897421404 -3 -3 1
2824 4 -2 -51.541040083573314 57.35726852039805 -120.97248524742977 -3 -2 1
1554 4 -2 -51.844812784192 55.16213972783508 -118.09171508862278 -3 -3 1
2429 4 -2 -48.72448523467809 56.39047304867415 -119.79126810557004 -3 -3 1
1931 4 -2 -22.219362794056792 -37.5222518340651 -113.52775460272989 2 4 0
2336 4 -2 -21.8092172501406 -38.02333253649489 -110.1194168056923 2 4 0
1336 3 4 -20.85371998590929 -37.63901410527167 -111.93350216325321 2 4 0
2561 4 -2 -19.371016330894733 -38.949723787257284 -112.74811325832916 2 4 0
2466 4 -2 -19.697129770908155 -35.952903166521025 -112.40149523057185 2 4 0
1098 2 0 -51.30977201723753 -21.524505036749126 -113.72020598889866 3 2 0
1099 2 0 -68.60888448708215 -13.221928247696962 -110.52902941558081 2 1 1
2793 4 -2 -61.357949248053856 2.5704930731031084 -110.09186464513962 1 0 1
73 1 1 -60.28091286393964 3.693323481357254 -111.88156353997783 1 0 1
1423 3 4 -59.62563141532786 2.719930316687581 -108.85710366838371 1 0 1
1548 4 -2 -58.67919994294409 0.9950867250709976 -108.08454730442678 1 0 1
1918 4 -2 -58.55649308188533 3.9175935743657178 -110.23466864275116 1 0 1
2394 4 -2 -25.21091839960733 3.126508603905023 -114.0559878155244 -1 1 0
144 1 1 -25.963796666351705 3.6213136888285504 -111.90882764069559 -1 1 0
1984 4 -2 -24.139873359365843 2.185908087704526 -111.20542480595482 0 1 0
1394 3 4 -23.33706391485454 2.8090452403703807 -113.07328784329162 -1 1 0
2019 4 -2 -23.679529632362236 4.857385742864203 -112.25158586820271 -1 1 0
1051 2 0 -24.297848314550023 1.0972063504626988 -107.33480820865675 -1 -2 0
2764 4 -2 -21.875102171976838 1.5480020477765848 -113.98407609278159 -1 1 0
2614 4 -2 -21.30311440314424 3.4598540556558177 -112.17814587492639 0 1 0
1294 3 4 -20.264547584526728 2.9373965674030345 -114.03817499695775 -1 1 0
2519 4 -2 -19.7427018956756 4.976319620243309 -113.48936620597674 -1 1 0
1264 3 4 -21.69744853782364 5.6036453894179985 -112.85235742676976 -1 1 0
674 1 1 -19.457772075132787 4.675427053821281 -111.0438239508824 -1 1 0
2239 4 -2 -21.33293097696432 6.204736723452044 -110.84835749614187 0 1 0
389 1 1 -22.687414144584356 3.859985393333801 -110.22596829285526 -1 1 0
264 1 1 -23.55582595693953 7.243997593483229 -111.42283908847286 -1 1 0
1889 4 -2 -22.759472449595364 7.246830926593468 -113.69053485848887 -1 1 0
1734 4 -2 -102.51844703001854 46.6772968917098 -113.18511714133133 1 0 1
2965 4 -2 -99.19765072017472 46.26818884085989 -113.71278601145876 1 0 1
1210 3 4 -100.74833652657668 47.69698665620497 -113.76133737344631 1 0 1
1835 4 -2 -100.36034080949496 49.220149772471686 -112.35146586066267 1 0 1
1981 4 -2 -90.32718659678244 62.750582025102204 -112.10277521915434 1 -2 1
606 1 1 -89.22410067934759 64.58448636987973 -112.94580127165152 1 -2 1
1576 4 -2 -6.2683022548419345 -41.89603811054151 -100.86539320576514 2 -1 0
989 2 0 2.1878829029774494 -41.88666943104257 -102.88214018425793 2 3 0
992 2 0 -18.64247488040548 -33.65047355941662 -106.43658628971002 4 5 0
1118 2 0 -16.478613803758492 -22.547998635917935 -102.11973694076572 1 2 0
2471 4 -2 -65.93337017096601 -4.728346628401773 -100.09326806468201 2 2 -1
1596 4 -2 -64.23003968873682 -7.207662096957158 -100.47591291527046 2 2 -1
746 1 1 -64.20838097401528 -5.177990864227425 -101.70332664808525 2 2 -1
2143 4 -2 -59.85330737427978 3.544822305377423 -106.93434656520421 1 0 1
448 1 1 -58.99965379943322 1.6387928382065482 -105.7062705647117 1 0 1
771 2 0 -31.765960908098645 1.7240462641520722 -102.01439130579895 1 2 1
514 1 1 -32.310140781368204 13.926035335499577 -102.28594869853549 -2 -2 0
633 1 1 -30.75684667772116 15.864037750954829 -105.08956128365911 -2 -2 0
1234 3 4 -30.519872390539685 16.517426553944162 -102.00015585430228 -1 -2 0
2894 4 -2 -32.34801828186728 16.33852034188594 -103.24749571609455 -2 -2 0
1139 3 4 -33.675690463272616 16.817079238256063 -101.5573659480717 -2 -2 0
2613 4 -2 -32.02577713316751 15.662806691037105 -100.61280294848757 -1 -2 0
509 1 1 -34.26657891229195 16.235490064179956 -104.80376739445408 -2 -2 0
1638 4 -2 -34.62875547040305 14.95557577033317 -101.91345327734606 -2 -2 0
2889 4 -2 -32.03130378930472 18.22290918308301 -101.76986043757906 -2 -2 0
1864 4 -2 -34.23720736724857 18.275697689197486 -103.09846742271793 -1 -2 0
363 1 1 -33.50525900777883 20.320777831230828 -101.84781264197757 -1 -2 0
1239 3 4 -32.22997108904645 18.45196021800235 -103.99579859114206 -1 -2 0
2994 4 -2 -31.9453090905168 20.532968914982263 -103.5887455366892 -1 -2 0
2989 4 -2 -32.55601008474446 17.664489412594122 -105.9178113888726 -1 -2 0
1663 4 -2 -30.17169582727177 17.795431216331664 -103.6949683383917 -2 -2 0
1859 4 -2 -29.98234650817828 14.673073706987616 -102.96510799757792 -1 -2 0
1658 4 -2 -29.547108012347262 17.562395290243458 -100.45074251393015 -2 -2 0
39 1 1 -29.991759616232947 19.52971049463514 -101.9805006028465 -2 -2 0
1825 4 -2 -79.60208628776465 30.98861754959134 -101.03175115526635 1 2 1
1200 3 4 -77.80154826601074 31.581126761045184 -100.03946689185831 1 2 1
2930 4 -2 -76.43913819538008 29.954288958551587 -100.08968387070864 1 1 1
1724 4 -2 -76.90018953773063 33.36540772050725 -100.81715842310062 1 2 1
1080 2 0 -72.93905921365094 41.80719897345034 -101.97817604070222 0 -1 1
793 2 0 -52.15509841980288 -43.55985394507928 -94.19206017294741 2 1 0
221 1 1 -6.301881474024988 -43.78829173717696 -99.58779528062794 2 0 0
2096 4 -2 -67.65251417837456 -7.967602192764083 -99.92104658703049 2 2 -1
311 1 1 -68.03282781403624 -8.722600433600505 -97.69755912963431 2 2 -1
165 1 1 -54.97546295555793 -11.073779069155293 -97.32903866250963 3 1 1
2165 4 -2 -54.642356149069556 -13.302218777106315 -97.16041339767615 3 1 1
2191 4 -2 -66.25945434026927 -7.253903908501869 -97.42286493295788 2 2 -1
1471 3 4 -66.01831776741115 -6.742206687151651 -99.43685962940786 2 2 -1
2917 4 -2 -54.457802422398444 -1.231167362604758 -97.12328068283527 3 6 1
1755 4 -2 -33.390097239705284 1.2123505080559767 -96.26403488191261 1 2 0
1380 3 4 -33.39178268956617 3.1502517065335454 -97.0013422875589 1 2 0
2380 4 -2 -31.906287437367954 3.763502132104314 -98.39225763974318 1 2 0
2250 4 -2 -33.01369413065048 4.798573364704069 -95.77255511380534 2 3 0
2775 4 -2 -35.10237930830369 3.861296073894273 -98.06445646275955 1 3 0
25 1 1 -33.07208700386269 5.782441936716424 -98.0136125876915 1 3 0
1979 4 -2 -54.11061038409353 10.757174467306506 -95.08054906666754 -2 -2 0
1259 3 4 -53.71160296561 12.520632191553439 -94.04009279166561 -3 -2 0
2259 4 -2 -53.339046406331775 14.04010894716717 -95.44249295629189 -3 -2 0
2816 4 -2 -85.59345547130556 20.428556002727916 -94.05006870004408 1 2 0
1446 3 4 -83.68473032814651 20.72905645721707 -93.13378086033555 1 2 0
2786 4 -2 -82.09493755261794 21.015860222245422 -94.50340371428322 1 2 0
614 1 1 -31.744056677363588 17.689419654048045 -99.26079156160974 -1 -2 0
1764 4 -2 -34.3217050959278 17.317619323019755 -99.61506134721733 -2 -2 0
114 1 1 -34.118253884850674 14.875032817524598 -99.39927332537304 -1 -2 0
441 1 1 -81.26271364368517 22.954255506132967 -93.3466849975952 1 2 0
794 2 0 -76.04688375205205 25.574561371415598 -95.16398222148177 -2 -1 1
2549 4 -2 -78.20939133317157 32.02767362195149 -98.00960782641388 1 2 1
2741 4 -2 -79.46551260262187 33.84416937648294 -93.67850041798303 2 0 1
172 1 1 -78.84356265452817 33.02722509539204 -95.85596853347187 1 0 1
755 2 0 -69.9689092621953 63.72090487502018 -95.12122041617626 -1 -1 0
1897 4 -2 4.1602859140471935 -31.636391255076674 -90.17179613463665 4 7 -1
1068 2 0 -73.60656447460445 6.142911788780047 -90.7977912868182 1 0 0
972 2 0 -84.50826938654319 13.520275180449516 -88.84419578871434 -2 0 1
807 2 0 -51.91560613342423 7.415325086919111 -91.81663224275943 -2 0 1
2009 4 -2 -55.375423377874704 12.846974406171903 -92.62000272893994 -3 -2 0
19 1 1 -54.654723168201784 12.59175092033827 -90.32648259072086 1 1 1
2588 4 -2 -53.393724860417535 12.834936528273225 -88.44621322954576 2 1 1
2609 4 -2 -52.09371700120721 12.327288160741858 -92.6688462723236 -2 -2 0
354 1 1 -51.67402708324401 12.70394647073718 -90.29710498696939 -2 -2 0
37 1 1 -26.98597089381256 12.109912553468092 -87.26014550129001 2 -2 0
1532 4 -2 -27.535458967190667 13.630045876133828 -89.20197464528101 2 -2 0
1571 4 -2 -83.14146157774051 19.33896286777744 -91.62268593156047 1 2 0
2446 4 -2 -83.41704718952698 22.708567410190838 -92.301781055772 1 2 0
2516 4 -2 -70.90380101570982 24.4649386770714 -91.07353900665717 1 0 0
1291 3 4 -70.25983267127651 25.17101152661813 -89.18178383869667 1 0 0
2041 4 -2 -68.07218866113064 25.13230458922598 -89.14286190788827 1 0 0
2641 4 -2 -69.67486380246831 24.238948584178573 -87.29488988815766 1 0 0
1266 3 4 -68.11821992805994 25.7882460377149 -87.00988922977719 1 0 0
1986 4 -2 -72.29597556977535 25.57881430905985 -88.67465527307283 2 0 0
391 1 1 -71.20027209932184 25.98116582282522 -86.28364793717974 1 0 0
241 1 1 -73.18793598444576 24.983599604352634 -90.81719882544151 2 0 0
2266 4 -2 -69.61538964975739 26.899772700739078 -88.09594899915636 1 0 0
2016 4 -2 -66.1518118389209 25.94112632290053 -86.24686245488773 1 0 0
1872 4 -2 -97.27270520197288 39.13457656676104 -92.69583648613728 0 -1 1
1247 3 4 -96.08896252864116 39.851589548499106 -91.09807148474532 0 -1 1
2746 4 -2 -96.9193257924006 40.59172203893121 -89.25545059641375 0 -1 1
1646 4 -2 -94.74779128436566 41.45102245511161 -91.42669712700146 -1 -1 1
2977 4 -2 -94.60918604590614 38.63257878826822 -90.16971681459691 0 -2 1
631 1 1 -94.2477987964829 40.8498067346211 -89.13032600647878 -1 -2 1
955 2 0 -48.1793455588067 38.05784237642763 -86.78263288860155 -2 -2 0
1727 4 -2 -49.94364656481529 42.93058524749317 -86.51221220824884 -1 -2 -1
870 2 0 -73.18667410839194 51.07036355596907 -89.27591716627214 -1 0 0
765 2 0 -51.960468514229774 51.570512103654096 -86.63836917591935 1 0 0
2276 4 -2 -101.46337958982994 63.667138951121316 -88.71398024662318 1 1 0
281 1 1 -101.99010035551564 62.08720008353431 -86.89203719217983 1 1 0
2026 4 -2 -99.4380635797103 61.83829475485153 -87.05773619623238 1 1 0
1276 3 4 -99.94025186243469 63.89048218446591 -87.22945680613465 1 1 0
2271 4 -2 -98.41070500390347 65.30957961557915 -87.40347661387811 1 2 0
970 2 0 -40.07511715610825 -40.414515573572515 -81.85471084679892 0 0 0
897 2 0 -56.139730245779624 -33.522802022031534 -84.13010198733667 1 2 0
881 2 0 -3.8662063748162723 -28.694153675927186 -80.94309281172163 -1 0 0
969 2 0 -74.53962363896736 -0.44418092361856054 -80.41530382167912 0 1 0
1010 2 0 -58.88580110107109 -2.9287255696469217 -80.88810030069145 0 0 0
944 2 0 -42.889990663145284 -3.778972304879254 -79.94178940711046 0 1 0
2245 4 -2 -26.005618152288406 10.9593256393591 -85.3458334225722 3 3 1
1096 2 0 -40.85888152032512 21.26394636212092 -81.25454373318101 0 0 0
2616 4 -2 -68.84959184227107 26.260915716867103 -85.02997139974427 2 0 0
416 1 1 -66.66706074470427 26.53174147709936 -83.97985684196196 1 0 0
383 1 1 -90.5080374507827 43.22133979958883 -81.76767727923381 -1 -1 0
1758 4 -2 -88.29975329306438 43.64349816786782 -81.16171248626125 -1 -1 0
578 1 1 -50.890843996486396 41.03903662776429 -85.7544825127258 -1 -2 -1
2133 4 -2 -90.80476455667215 44.4961104890922 -79.73650959571766 -1 -1 0
1133 3 4 -88.7603242136179 44.479354495710965 -79.25991926193424 -1 -1 0
896 2 0 -109.09872945738385 57.49720177811908 -82.48882348336628 -1 0 0
1991 4 -2 -101.26176526687834 63.98089648620211 -85.56286791955287 2 2 0
123 1 1 -93.69494078835503 63.02467678223179 -78.7435814024423 1 -1 0
776 2 0 -4.7238469358909825 -30.41531645661895 -77.56347473791074 0 -2 0
990 2 0 -32.57922885059865 -19.546403313899074 -75.71347492320773 0 1 0
2048 4 -2 -60.30548671051703 18.491275233886377 -72.77242780633904 1 1 0
2423 4 -2 -63.318305656522774 20.49356928046923 -73.40357630323375 1 1 0
1323 3 4 -61.40493975698457 20.233998840989685 -72.47196962833834 1 1 0
795 2 0 -30.365829696411044 14.920711243517147 -72.81688818521394 2 0 1
593 1 1 -66.89366107519835 29.473332404977 -71.65195182992716 1 3 1
173 1 1 -63.06030562199961 22.516952878147606 -72.00618748690158 1 1 0
2073 4 -2 -60.71327511851409 22.14634661173595 -72.94803553918213 1 1 0
2888 4 -2 -88.1808231861549 43.42020229552253 -77.50990867686058 -1 -1 0
1657 4 -2 -87.88531644243855 46.2687650907708 -78.58560002395312 -1 -1 0
677 1 1 -87.34251607847102 45.374544808145814 -76.40041948184597 -1 -1 0
787 2 0 -81.34138552689669 59.32089736823022 -78.56436575744121 -2 -1 0
2499 4 -2 -92.01256728877559 62.28383853101538 -77.42828467605428 1 -1 0
2548 4 -2 -62.06305103203496 20.74132124736434 -70.5292542788281 1 1 0
824 2 0 -25.800726530888483 20.53837785429667 -67.00743557719528 -1 1 0
2868 4 -2 -68.63483338511244 30.819182470519152 -71.15564519343455 1 3 1
916 2 0 -58.309220022555564 42.3043578237515 -70.12085236352377 1 2 0
269 1 1 -88.47805439780089 49.67476172326781 -66.5402510312017 -1 2 1
2524 4 -2 -90.85821539221564 49.76376319591668 -67.22617614944824 -1 2 1
657 1 1 -89.86635657054558 51.88350003701915 -68.03712279369944 1 -1 0
2057 4 -2 -85.93560286693622 49.74545690291707 -65.86325394802275 1 -1 0
1277 3 4 -85.48707358646593 51.68043770772408 -66.58283118446812 1 -1 0
2027 4 -2 -87.48246628452378 51.81020051286309 -67.42567059460576 1 -1 0
2527 4 -2 -88.90239695264006 54.0639219407348 -69.13406023955004 1 -1 0
58 1 1 -88.22810398356526 56.14553457154996 -70.22598389630251 1 -1 0
2502 4 -2 -83.48161309729468 52.13528754461832 -65.93419132422456 1 -1 0
1302 3 4 -86.95207144905771 53.72030742864381 -68.38515667752758 1 -1 0
2302 4 -2 -85.24768316950083 52.366180288672936 -68.62194624771219 1 -1 0
1922 4 -2 -86.23249921987562 55.49867632991884 -69.26111957169324 1 0 0
2052 4 -2 -86.02692907788652 53.82518242625015 -66.44267201977381 1 -1 0
297 1 1 -83.58915898950886 53.8652168604992 -67.4706089382988 1 0 0
2941 4 -2 -106.31324636953588 65.13098125051322 -67.94586224550929 -2 3 2
1225 3 4 -52.01070953133827 -39.75088753426407 -62.49367126855291 0 2 1
2955 4 -2 -53.915992652052 -39.360028823152945 -61.69541433908347 0 1 1
2724 4 -2 -51.82377265404213 -40.6609874383055 -64.38962073956425 0 2 1
329 1 1 -49.36531730540117 -40.15814002954791 -63.464169604146946 0 1 1
1749 4 -2 -50.6000448825805 -40.93430130691042 -61.42448764800781 0 2 1
1580 4 -2 -50.82989888294327 -38.043886966560635 -62.825461979046565 0 1 1
2987 4 -2 -11.165221258883527 -11.922557969646597 -60.29977215794274 0 1 1
2731 4 -2 -12.343433435395873 -13.465657110678091 -57.92975684190793 0 1 1
736 1 1 -10.1631575304907 -12.721456404773491 -58.2760460497575 0 1 1
1232 3 4 -13.118359901799849 -12.533306925025066 -59.68140940211467 0 1 1
2857 4 -2 -14.053125097824406 -13.766093057491478 -61.09293829126722 0 1 1
1607 4 -2 -14.34563153948666 -10.898928836194408 -59.22085863212932 0 1 1
958 2 0 -60.507660869361125 17.153185385064816 -62.4356335916612 1 1 0
2726 4 -2 -37.17552441571026 21.428668400402174 -58.15062917132255 1 -1 1
2982 4 -2 -38.68491956667083 24.110431269107437 -58.260777417493046 1 -1 1
731 1 1 -36.833076185886476 23.47268866955622 -59.640798809075 1 -1 1
2852 4 -2 -35.66138496057772 24.14921896683947 -57.54289764214051 1 -1 1
2267 4 -2 -70.7816508064004 55.20881270343878 -63.96415455765663 -2 1 1
1005 2 0 -50.831550619530795 -23.64002076751534 -55.55073534165385 0 1 1
549 1 1 -67.04647927207179 22.706039658882034 -50.89216138922811 0 3 0
2673 4 -2 -68.13865360722548 24.66022921530046 -50.675040256958376 0 3 0
1852 4 -2 -37.88090972036328 22.965508997938983 -54.881605962246454 1 -1 1
1227 3 4 -37.41673633270215 23.119475927594863 -56.916354580233815 1 -1 1
790 2 0 -101.19449183195707 60.672409896013875 -56.391019373560376 2 0 0
1095 2 0 -86.41129361044594 61.311537674427214 -54.67315656948987 0 -1 0
1053 2 0 -7.46677974349047 -26.81853923095799 -45.32236124888135 -1 -1 1
757 2 0 -26.14537276013768 -16.14951558644565 -45.453312480947176 2 3 0
968 2 0 -39.21051056301667 -4.098234997950371 -46.45208667086357 1 1 0
1731 4 -2 -48.35742817930267 13.978436147997542 -45.770579913343724 1 2 -2
233 1 1 -66.56106028717188 18.38156517976624 -43.4714313908491 1 0 0
1913 4 -2 -59.10188465746598 16.78720108343296 -50.14837714249596 1 2 1
718 1 1 -56.85416699620569 16.873592281643162 -49.77038967844497 1 2 1
42 1 1 -49.508212187457524 36.543124341732906 -46.60575931932747 2 0 0
1792 4 -2 -53.11671181252175 37.06178840134636 -43.64079490477854 2 0 0
1137 3 4 -51.7144910859255 38.079910811904824 -44.804057357602154 2 0 0
1762 4 -2 -49.63733628388421 37.597279757185234 -44.45650785996162 2 0 0
1661 4 -2 -51.64259302861043 37.493267654371664 -46.818118464730226 2 0 0
2636 4 -2 -51.41076695754515 40.08359012759013 -44.322101000381934 2 0 0
261 1 1 -49.243165477402655 39.74987445109187 -43.5335852029904 2 0 0
2075 4 -2 -58.59632871470596 57.48636466558682 -46.62767177546988 0 0 0
320 1 1 -58.10300213100457 56.97954838884698 -48.94913682126597 0 0 0
847 2 0 -69.15831937777679 62.02178667202641 -47.53255223626289 -1 1 0
2575 4 -2 -60.93333981123168 60.20894935814181 -46.81168315148114 0 0 0
475 1 1 -60.44854850552067 62.17096927463875 -45.59721592016084 0 0 0
1350 3 4 -58.9672228698652 59.52179287186087 -47.004135826086646 0 0 0
2100 4 -2 -58.21051855224603 59.388008535230526 -48.96712789324198 0 0 0
1945 4 -2 -58.28252693951689 61.1001756320036 -45.717579114920625 0 0 0
2064 4 -2 -1.0456266995722459 -41.92473582224545 -42.113551859484836 -3 -4 -1
1088 2 0 -53.51899932416931 -30.748030364343645 -40.88033884442266 1 3 0
2365 4 -2 -7.564740010825702 -13.271855877921855 -37.08059493040884 2 2 0
2115 4 -2 -7.885992563351451 -10.971916736357556 -39.609084416947844 2 2 0
1365 3 4 -7.262367895950064 -11.226906732820126 -37.60623498037867 2 2 0
2590 4 -2 -8.375250570419723 -9.993038968813948 -36.2984429830221 2 2 0
823 2 0 -48.83151972659408 10.771376844331286 -39.029610302734916 1 0 0
1903 4 -2 -68.11589522657235 17.15297812631976 -42.44782062423218 0 0 0
661 1 1 -55.00399426702436 20.16089516821539 -41.04842459849937 0 1 0
2061 4 -2 -56.52575349046856 20.17208099535854 -39.131255100182216 0 1 0
1855 4 -2 -89.11820096903054 23.170704579156805 -36.82896529883508 0 -2 0
2985 4 -2 -89.96894350220029 22.76467669123636 -40.18093788293463 0 -2 0
1230 3 4 -88.60888554957967 23.69051261659557 -38.80498686228947 0 -2 0
1629 4 -2 -88.5365195520167 25.760249637468704 -39.1625809278389 -1 -2 0
2729 4 -2 -86.66451370009626 22.914459574951607 -39.12341890532245 0 -2 0
844 2 0 -74.56870131310724 25.20559530093483 -43.18286614734008 0 1 0
1906 4 -2 -55.0296884417641 22.478385724570984 -40.74253241878992 0 1 0
2511 4 -2 -56.158794429923255 23.18191554777023 -37.27259178011071 0 1 0
1311 3 4 -56.39998155651374 22.275528380119425 -39.146020665049726 0 1 0
436 1 1 -58.21029960228278 24.371197871444508 -37.49920116138283 0 1 0
2311 4 -2 -58.29413356772502 23.138248489490564 -39.55576429383785 0 1 0
752 2 0 -40.806440101609 32.17880071172438 -38.34193534716323 -1 -1 1
931 2 0 -55.64290667208483 41.294709149444486 -42.66137000388296 0 -1 0
932 2 0 -50.19324350708176 38.16663977596032 -40.786997588610525 0 1 0
468 1 1 -54.47583236323408 56.793853937994456 -36.472559102938945 -1 -2 0
836 2 0 -52.72169032844552 -39.30011557152404 -32.95890265671187 2 2 0
986 2 0 -65.39612014007523 -18.307463917467537 -34.435614504407916 4 2 0
756 2 0 -40.4028092365301 -22.565446903958005 -35.53820454000359 1 0 0
1079 2 0 -16.570802986529635 -18.418560184874586 -35.71476169889439 1 1 0
1007 2 0 -74.78915624101822 35.88798953315258 -32.95478424130895 1 -1 0
1820 4 -2 -74.97047206638604 44.27016996323481 -31.26136934314007 0 -1 0
2845 4 -2 -78.21941701987305 43.08552287933051 -31.769591925764754 0 -1 0
1475 3 4 -76.9219408771292 44.19393485365178 -30.56227911594965 0 -1 0
75 1 1 -78.3347841843657 41.2909960833409 -30.185504056799545 0 -1 0
908 2 0 -71.16883941758888 42.51190533407082 -32.92961557084139 0 -1 0
1600 4 -2 -77.48273034339985 45.93230440386034 -29.513679529071453 0 -1 0
2568 4 -2 -54.76608471970569 54.61193041833498 -35.60729926200071 -1 -2 0
1219 3 4 -52.80938828316444 54.47792448077344 -34.81615440905561 -1 -2 0
1844 4 -2 -52.378299134554496 56.477311553089564 -35.33137959839531 -1 -2 0
2343 4 -2 -52.66747369319834 53.842937614387594 -32.812643684621165 -1 -2 0
2693 4 -2 -51.519423977550666 52.936649656470095 -35.49055964499943 -1 -2 0
688 1 1 -51.21176613380076 51.97588800575335 -33.25216455339036 -1 -2 0
835 2 0 -100.6052314504156 62.48943576133421 -35.33525005928459 0 -3 0
895 2 0 -54.565404573480464 -21.399259021250504 -28.791199840996093 0 1 1
1069 2 0 -16.009195254018458 4.124849491772395 -24.41149905713386 -1 -2 1
837 2 0 -54.261575671340424 7.742412733978121 -27.318492542509905 -2 -3 1
2689 4 -2 -81.36750729122153 31.706643161304683 -27.84925457804364 -7 2 2
111 1 1 -100.7870626024617 43.3945448450293 -22.98795726663613 -3 -2 0
2950 4 -2 -77.23375514199613 43.00396768616346 -28.838843819375317 0 -1 0
1070 2 0 -75.78152614470883 43.405058955087966 -24.486352507631736 1 2 1
1581 4 -2 -103.5849426263124 46.245169023452135 -25.56896034266499 -3 -2 0
1456 3 4 -102.3124471771243 46.06794368989007 -23.89028743327981 -3 -2 0
1831 4 -2 -102.76326537376394 44.52759588387866 -22.577312436903615 -3 -2 0
106 1 1 -104.47104463139144 48.317015015188716 -24.859413758705166 -3 -2 0
2826 4 -2 -102.69403965272375 48.032211183824586 -23.280646016174305 -3 -2 0
2456 4 -2 -100.35407957244283 45.32602338369212 -24.237050542419137 -3 -2 0
595 1 1 -77.71596733233125 44.87489422247771 -27.42278652297387 0 -1 0
1093 2 0 -1.448967527318814 -37.11831817576328 -21.845398029367804 2 1 0
563 1 1 -55.64142519802097 -18.624197496856212 -15.561719834276246 0 -1 0
860 2 0 -47.05478186191819 -0.5446032308025934 -15.56387088435527 1 1 1
766 2 0 -95.89620889571115 36.25263039526237 -14.936272321619562 0 1 -1
845 2 0 -53.17915047564238 36.696443899180395 -18.679120552211234 -1 -2 0
991 2 0 -63.61967965801159 39.53392393597082 -21.880463554602372 1 0 0
1113 2 0 -11.734439733906314 -43.509904504843334 -8.506638426809022 2 2 0
904 2 0 -54.72904321203553 -33.625784565528235 -10.126202530808682 2 1 1
2695 4 -2 -17.259145921100945 -31.122072699320928 -11.852596121763828 -1 0 1
195 1 1 -18.31988285462701 -30.704955154463754 -9.819856118422262 -1 0 1
2193 4 -2 -55.9642064304986 -22.037526405530123 -11.05482832791989 0 -1 0
168 1 1 -57.178512404884465 -20.12149560692689 -12.054212058313869 0 -1 0
2948 4 -2 -55.10414933896265 -19.9815770061456 -13.594885170851612 0 -1 0
2813 4 -2 -52.915740162655666 -22.274342424880516 -12.805011428849324 0 -1 0
1443 3 4 -54.30897134585082 -20.99833129870503 -11.845465133854145 0 -1 0
2473 4 -2 -55.131854415214896 -19.122978479238427 -11.12365544388349 0 -1 0
1473 3 4 -54.3810523721138 -18.003970998804277 -12.88211612955648 0 -1 0
2443 4 -2 -52.85727864594894 -19.399289817812303 -12.05395031542579 0 -1 0
533 1 1 -52.635041713101586 -20.271105277941675 -14.30924305326386 0 -1 0
1813 4 -2 -53.46076907166379 -17.8770202609815 -14.83477548813885 0 -1 0
568 1 1 -53.26242133881096 -17.870158651170698 -10.180698800066464 0 -1 0
1843 4 -2 -56.05894437891136 -16.98605479056115 -13.780605524032692 0 -1 0
1598 4 -2 -53.592185637726736 -16.24165435782386 -11.95110952346075 0 -1 0
722 1 1 -54.111422548343086 -15.531058894211473 -14.23145402415905 0 -1 0
2738 4 -2 -18.632576696849455 -13.734918501346431 -8.307059678725123 2 1 1
1045 2 0 -52.717458862420365 31.668808139161058 -12.155365688643966 -1 -1 1
1122 2 0 -68.98250339793141 56.857055748888314 -14.46084738192387 0 0 0
782 2 0 -102.89225381331869 59.947810886594596 -8.446444478996982 0 -2 0
1587 4 -2 -27.154987767934813 -39.51899288592017 -4.356909243443936 1 1 0
351 1 1 -26.071985413869378 -40.72920119777493 -2.471678341699626 1 1 0
1822 4 -2 -24.46351897843032 -39.06302654916716 -1.8441884918851479 1 2 0
57 1 1 -25.1174161060813 -38.12992752618365 -4.325316076771186 1 1 0
452 1 1 -27.34649988823347 -37.963904717971765 -2.3895478873580185 1 1 0
716 1 1 -21.989007738705634 -38.87634800411933 -1.2891376122909743 1 1 0
2447 4 -2 -25.81254629880513 -36.18207057356009 -3.0040055767686757 1 2 0
1447 3 4 -24.3484252052869 -36.89584693702306 -1.6680349538446875 1 2 0
306 1 1 -26.81769440206054 -34.57015694956405 -1.3835014423289183 1 1 0
2206 4 -2 -27.704160393349838 -30.158975950266544 -2.9182507427560287 1 1 0
2822 4 -2 -22.662264614963203 -37.05524831847748 -2.881490534213728 1 2 0
861 2 0 -58.36568610179928 -28.78577497079724 -2.8656906749262268 2 1 -1
1573 4 -2 -41.61611713745533 -29.334644119660727 -4.307773148944513 2 1 1
543 1 1 -40.058186335691246 -29.20961203054837 -2.648800664352294 2 1 1
2111 4 -2 -30.41012804097577 -24.449234867605924 -2.0792150156349125 1 1 0
507 1 1 -30.4158374014521 -22.993155719189073 -4.2680724317486485 1 1 0
2211 4 -2 -30.006815420145543 -28.41877861939646 -6.918043002696652 1 1 0
1486 3 4 -28.825464297485738 -26.8129880470952 -6.125357855237152 1 1 0
77 1 1 -29.791868369638777 -29.868052896678872 -4.98373219399011 1 1 0
1951 4 -2 -29.70598777130665 -25.117365980136736 -5.041090167189551 1 1 0
2586 4 -2 -29.22906098965256 -27.584182567903763 -4.127335711522249 1 1 0
1207 3 4 -28.982429968459552 -25.71808840756128 -3.067157633878336 1 1 0
2491 4 -2 -27.23589476374067 -25.76859970130375 -7.1345532192396535 1 1 0
1640 4 -2 -27.0878823936059 -28.17221843238909 -5.655594598982325 0 1 1
2740 4 -2 -27.346469953551733 -26.08896710202515 -4.553313409125221 1 1 1
18 1 1 -26.068161506492924 -29.641992696218388 -7.143853959745728 0 1 0
1236 3 4 -25.614189575914533 -26.43691405003652 -5.8371977396653545 1 1 0
2861 4 -2 -25.0226721109589 -24.417150812616683 -5.398789469130972 1 1 0
2486 4 -2 -24.497261595732287 -27.814238460127097 -6.945410889631452 1 1 0
1491 3 4 -27.13369256556576 -28.214718236806515 -3.4646883792179346 1 1 0
2361 4 -2 -25.24242754716491 -27.160374959882844 -3.7547031505179143 1 1 0
696 1 1 -25.58421568792076 -24.566344585738417 -3.0060737001616658 1 2 0
2581 4 -2 -27.929491962506606 -24.129920408717272 -2.0517496806269286 1 1 0
1611 4 -2 -27.888334863773345 -27.152716921433043 -1.7718788690030183 1 1 0
446 1 1 -27.383996458483562 -23.750667005263715 -5.672631093416202 1 2 0
1356 3 4 -29.33799710830019 -22.774964663367705 -1.0339565562332629 1 1 0
16 1 1 -28.883118479735305 -29.685697525668473 -0.7320728377845886 0 1 0
1956 4 -2 -30.660594410903364 -18.000687046722863 -1.8263975744542027 1 1 0
2556 4 -2 -29.662733841141456 -21.37046045134751 -2.7354509900786304 1 1 0
2962 4 -2 -28.130995543086684 -17.908885729396793 -1.442152491167247 1 1 0
1361 3 4 -29.42949108469149 -19.695818664777146 -1.3496473785274343 1 1 0
426 1 1 -26.27509370849069 -16.413604079874283 -0.8687470056468926 1 1 0
1626 4 -2 -59.25940104091642 -3.712625390922568 -2.7539510925098494 0 -2 0
626 1 1 -58.229947988886344 -2.367359144070562 -1.2453183758203317 0 -2 0
435 1 1 -17.082702781876137 -6.326740720462361 -3.169100868730436 5 0 0
2685 4 -2 -17.194919368357944 -4.385491561214408 -1.930459878763284 5 0 0
865 2 0 -49.63694269186939 21.32648816686921 -2.7543147645760357 2 1 0