LAMMPS data file via write_data, version 29 Aug 2024, timestep = 57402, units = metal

3000 atoms
4 atom types

-55.981397646728816 81.23530564772176 xlo xhi
-48.481315000001295 70.3518420010087 ylo yhi
-138.41734735402238 200.85914235400594 zlo zhi
-68.60834078001842 0 0 xy xz yz

Masses

1 6.941
2 151.964
3 28.0855
4 15.9994

Atoms # charge

71 1 1 -10.428798771301757 -41.64898416548795 -136.222915423628 0 1 0
2430 4 -2 -9.521392755704774 -39.60815831961329 -137.11424552323533 0 0 1
2175 4 -2 -9.432731766641304 -37.27857780888276 -134.26469949525955 0 1 1
2825 4 -2 -9.298527186033965 -40.79128872406798 -134.36117817444566 0 1 1
181 1 1 -7.215768698082719 -36.326364302967335 -134.05138913837754 0 0 0
1555 4 -2 -6.715335790336297 -38.29796976406107 -135.24569365256096 0 0 1
1430 3 4 -8.70911433610786 -38.98661715751889 -135.27183627791038 0 0 1
771 2 0 -73.88882736390312 -10.969526681813356 -136.31077179818493 1 2 1
915 2 0 -74.05330579361052 -1.8857647031439626 -136.0979978424662 1 0 1
2285 4 -2 -46.716218237308986 2.630481940315647 -133.3695780791936 2 -2 2
480 1 1 -47.07105627172234 4.459275533184659 -134.66948717937302 3 -2 2
2345 4 -2 -32.21567933722105 14.598111748825147 -132.70982291906546 0 0 1
430 1 1 -34.55955697783081 15.10696819885964 -132.65850208977548 0 0 1
465 1 1 -31.941623145413324 15.632914444524964 -134.96520351675207 0 0 1
1910 4 -2 -33.16670441979852 17.287124423573253 -133.56366635243208 0 0 1
1340 3 4 -31.704883677210454 16.646902625364298 -132.12513026308687 0 0 1
720 1 1 -29.861560276647765 14.030825837080002 -132.4488429081628 0 0 1
2315 4 -2 -30.03083470564975 16.373453450444508 -133.45580298829557 0 0 1
1646 4 -2 -89.68464136501817 38.72823182502288 -137.26381000757834 -1 -1 1
1247 3 4 -88.466011307462 37.20992543049599 -138.11219704314692 0 -1 1
1872 4 -2 -87.59484597439067 35.82558235862475 -136.84371741092957 0 -1 1
910 2 0 -95.35621386894343 42.81450363029197 -137.15065174071736 0 -1 1
1065 2 0 -95.87549935750133 51.897497421499146 -132.1560599999302 0 0 1
1770 4 -2 -83.10170112871984 50.990676713316155 -135.43780529110154 -1 -2 1
2644 4 -2 -82.91431888386393 54.34058029514713 -136.01772261282548 -1 -2 1
1145 3 4 -82.14180164098141 52.45275568178034 -136.62497885338655 -1 -2 1
2900 4 -2 -80.04322399020913 52.35979379546831 -136.31713089771281 -1 -2 1
2055 4 -2 -86.26756518485277 70.25373173593766 -136.84619661120817 -2 -4 -1
775 2 0 -59.90960797157763 12.793191992852186 -127.37899062922777 0 -1 0
1012 2 0 -64.26160054045094 14.672706335028522 -124.67930604388118 -1 1 0
2090 4 -2 -34.514810344254386 13.013676755555082 -131.24922750506968 0 0 1
1345 3 4 -32.57048596806445 13.73164361520891 -130.74919943458613 0 0 1
2565 4 -2 -32.30796800648952 14.272393156021927 -128.65822032489856 0 0 1
2540 4 -2 -30.970089079059488 12.304760158572073 -130.87954827279887 0 0 1
2340 4 -2 -33.202779729348336 15.901961982791327 -130.59317895587066 0 0 1
1315 3 4 -31.85719145697256 16.363719903589875 -128.95427027586706 0 0 1
2065 4 -2 -31.47306624694143 17.923305844616003 -130.38358562878386 0 0 1
1940 4 -2 -31.2655381779324 16.96046495174874 -127.04344447831173 0 0 1
2095 4 -2 -30.81706056697603 15.288324495434068 -130.55276480653782 0 0 1
315 1 1 -29.9941891150304 13.531669098133612 -129.0160390508685 0 0 1
856 2 0 -76.54898651534108 27.105577361603515 -125.08427838965567 1 -1 0
767 2 0 -83.38310325920915 52.422862479029455 -129.9155919428471 0 -1 0
564 1 1 -80.98401728210682 54.44840809078945 -125.97650386441443 0 -2 1
2336 4 -2 -100.35594604291735 59.312672694044544 -125.0112612748799 2 3 0
992 2 0 -19.661409959535405 -48.04222838446617 -119.99698328418147 4 5 0
885 2 0 -62.18773655238783 -10.445797979749365 -117.40820203610569 -3 -3 2
972 2 0 -78.15401518242054 24.12864128471316 -119.8353002314099 -2 0 1
2319 4 -2 -81.88555316694746 54.60821556808204 -123.87762535811433 0 -2 1
949 2 0 -114.33039780650452 61.67366218989293 -120.17381988506291 1 0 1
1114 2 0 -98.27124041550961 57.20604626902695 -123.27672404720947 2 1 1
1931 4 -2 -100.24542177484936 59.13335288494232 -121.51367527023136 2 3 0
2561 4 -2 -102.3801415563595 61.38325902799499 -122.94787600397163 2 3 0
1336 3 4 -100.5675608325727 60.375384418888395 -123.2021692152771 2 3 0
2466 4 -2 -98.94147940408087 61.682475900368125 -122.77967533735853 2 3 0
486 1 1 -98.66471999194567 60.682066997468105 -120.68161455064205 2 3 0
805 2 0 -114.4910231938122 66.05355929391615 -119.71489282862206 1 1 1
1568 4 -2 -54.17849607925272 65.69375966226431 -119.467345844053 3 4 -1
1592 4 -2 -46.8118680502869 -32.914473829463326 -113.99053489409572 3 2 0
2467 4 -2 -47.02030032285425 -33.08306640506691 -110.4820676985959 3 2 0
1467 3 4 -46.90107723002386 -31.81286987421239 -112.1757163372272 3 2 0
2837 4 -2 -48.65510886456207 -30.633394683075753 -112.26165889255873 3 2 0
2187 4 -2 -45.1866117986299 -30.608053740245673 -111.9880011712632 3 2 0
2917 4 -2 -47.17131772522564 -16.795732185508424 -116.3265057772632 3 6 1
537 1 1 -19.204982268062444 -8.071166822214266 -110.83555362159441 0 1 0
1658 4 -2 -43.67561603522819 25.000638551207338 -110.24255230976024 -2 -2 0
514 1 1 -42.27547104209814 22.942690608397378 -110.69331622337934 -2 -2 0
1859 4 -2 -42.418365810546256 23.71623293507063 -113.03402693223819 -1 -2 0
1234 3 4 -42.47373739534523 25.536584145096448 -111.9202372832917 -1 -2 0
614 1 1 -39.73307235317334 24.247521363960324 -113.09220572356911 -1 -2 0
1663 4 -2 -40.640024123185796 24.82912279914259 -110.86805341528344 -2 -2 0
2894 4 -2 -40.808406953642766 26.49978086624413 -113.00040516837994 -2 -2 0
2613 4 -2 -43.334351096271135 27.220554862413046 -113.01807627704704 -1 -2 0
633 1 1 -42.13079934254428 26.682761778366874 -115.15558573951674 -2 -2 0
1239 3 4 -39.49630399082562 26.658120346206864 -111.1597225977298 -1 -2 0
2889 4 -2 -41.672574209417576 27.29224564940956 -110.89833101643265 -2 -2 0
363 1 1 -44.098166292745574 28.212819437581935 -110.84940357751194 -1 -2 0
1638 4 -2 -41.10512662461576 28.876649697975274 -114.7906026091155 -2 -2 0
1139 3 4 -41.59995768985879 28.578925134525456 -112.7309912993781 -2 -2 0
39 1 1 -38.836209068833426 27.740422110783776 -114.01294679210163 -2 -2 0
1864 4 -2 -39.58884408017009 28.684745436506155 -111.88926558753955 -1 -2 0
1764 4 -2 -42.522566726677915 30.01537110454452 -111.4937201863998 -2 -2 0
2989 4 -2 -37.98238936566093 25.866382427413676 -112.42698522377384 -1 -2 0
329 1 1 -82.51674509339144 66.34004280359619 -113.70340613016712 0 0 1
2724 4 -2 -81.44850089761016 64.07852524241815 -113.88381488522762 0 1 1
1580 4 -2 -82.87967504746638 65.50810023009305 -111.38929194421337 0 0 1
1225 3 4 -80.99378386453284 64.77016704134962 -111.94793897117303 0 1 1
1749 4 -2 -80.1613402370776 66.63237160221314 -112.48763385988343 0 1 1
2955 4 -2 -80.02931952610228 63.62330054244391 -110.46097556829011 0 0 1
653 1 1 -12.155878827095151 -45.81820203855477 -104.15704565067679 -1 -1 0
1107 2 0 -21.55320652193928 -37.787977397925374 -107.56161646084084 -2 -1 0
1118 2 0 -8.40886341085907 -28.699991139398275 -104.31738189099448 1 2 0
2137 4 -2 -18.915884630887945 -10.235462334785296 -109.7409804018093 0 1 0
2417 4 -2 -20.589021962612613 -7.639814880566256 -108.73156408306187 0 1 0
2787 4 -2 -17.504659460344108 -7.419949241896411 -109.23113926830138 0 1 0
1417 3 4 -18.835616583576957 -8.738246530912072 -108.22682484380802 0 1 0
1912 4 -2 -18.31507125303866 -9.446310835291108 -106.35203830385757 0 1 0
1574 4 -2 -45.78073254121021 8.958801229854423 -105.93960107740861 1 1 1
1449 3 4 -44.411696053107036 10.290740079907337 -105.04039308264777 1 1 1
174 1 1 -44.385886964701434 9.755654316816312 -107.79949778300336 1 1 1
2819 4 -2 -42.669647628633776 9.559374953113533 -105.98163651997044 1 1 1
328 1 1 -32.50750018553473 9.712750226383413 -107.06403822025825 1 0 0
2204 4 -2 -30.53103725526695 8.368428247574201 -106.73443846073806 1 0 0
1454 3 4 -29.321318327096634 9.69137880920583 -107.84681444612747 1 0 0
1829 4 -2 -27.476305993886573 10.326289903664694 -107.05344119832156 1 0 0
2199 4 -2 -28.503199110884786 8.934439740642489 -109.61833606418817 1 1 0
209 1 1 -26.26995535255776 9.721728826872123 -109.06649751105729 1 0 0
1051 2 0 -21.867649354461044 7.869689292354309 -108.87425434844245 -1 -2 0
2449 4 -2 -44.738473551703294 11.849913401939453 -106.4560895437982 1 1 1
2454 4 -2 -30.861444489767734 11.10393876662274 -108.12262913829626 1 0 0
794 2 0 -71.86560456233586 31.394625860050503 -107.84849445656708 -2 -1 1
2852 4 -2 -55.42397363833303 31.0463725353817 -105.57167781127082 1 -1 1
2982 4 -2 -54.2122573378002 30.593506784299713 -108.4724260719483 1 -1 1
1227 3 4 -54.618823561213006 32.20255061312782 -107.15251636819384 1 -1 1
731 1 1 -56.52993790617141 30.18834234443407 -107.65912196907077 1 -1 1
2726 4 -2 -56.513027955908704 32.6542747801766 -107.98454649473949 1 -1 1
114 1 1 -41.52485008115087 25.90566297884707 -108.85863391715965 -1 -2 0
2994 4 -2 -39.30747048311633 27.164157893622452 -109.10812311358873 -1 -2 0
509 1 1 -40.60850210434198 29.19070064843209 -109.71624350443771 -2 -2 0
1852 4 -2 -53.12324465452326 33.64895973746936 -106.81497925269225 1 -1 1
1080 2 0 -82.11697814163321 46.03678966181176 -108.97320349311103 0 -1 1
2233 4 -2 -11.365642215177559 -44.1476610607088 -102.85794295428309 0 -1 0
989 2 0 -8.141730436351395 -44.90675257591584 -101.00141300334302 2 3 0
2524 4 -2 -68.56657172980168 -13.14563080853555 -100.87892147863137 -1 2 1
269 1 1 -66.5667324723112 -13.008757915332836 -101.96197693998633 -1 2 1
48 1 1 -15.84262897651562 -0.6157644854615896 -102.14917489210535 0 0 -1
2652 4 -2 -16.133300441301692 1.3223633715920968 -101.03539687881911 0 -1 -1
2169 4 -2 -44.41484930496831 10.648406472588647 -102.97761166425543 1 1 1
1144 3 4 -111.85757390440706 58.815407375346574 -96.541415860615 1 1 0
2899 4 -2 -110.34087486694797 59.60106182119464 -97.79381942769953 1 1 0
1769 4 -2 -113.53150694315909 58.30885818679206 -97.75672978402443 1 1 0
222 1 1 -108.37126493523353 60.63362474715023 -99.22399957782854 -1 1 0
2856 4 -2 -106.86160617592779 61.380734749837195 -100.92415182009756 -1 1 0
2191 4 -2 -70.2159267122756 -21.8232726695319 -92.60890241352043 2 2 -1
311 1 1 -71.72417142542912 -20.50098211402159 -93.86460956534997 2 2 -1
1068 2 0 -86.61749032411164 8.518946617134105 -94.7163462937582 1 0 0
560 1 1 -75.77363473146939 8.947391820854463 -91.28535186463985 4 1 1
1785 4 -2 -74.87618301281367 6.906865096160843 -91.70587646093547 4 1 1
2786 4 -2 -84.17665491720719 15.800410773560522 -89.10526807925423 1 2 0
1096 2 0 -47.775913490792526 25.714635410391615 -91.82375576664172 0 0 0
2618 4 -2 -111.04860315957016 57.20880035071712 -95.43297373084667 2 1 0
1668 4 -2 -112.51582498719017 60.41129028892595 -95.29863158282002 1 1 0
896 2 0 -105.4445164458134 67.09308161333104 -89.28972944551592 -1 0 0
881 2 0 -8.97010049666023 -30.977432986779487 -83.29497381729274 -1 0 0
776 2 0 -6.11407786456634 -26.600305536657284 -83.30174656439057 0 -2 0
980 2 0 -66.53752285013191 -4.147775815635889 -83.87947142300546 -2 -2 1
944 2 0 -47.268094954942526 -5.740532616672795 -81.9326140953224 0 1 0
2816 4 -2 -83.4529050811125 13.762316672372066 -86.63565325865535 1 2 0
441 1 1 -82.84949407836157 12.04039842596194 -88.04490873753387 1 2 0
1446 3 4 -85.07515179346254 14.342369994785692 -87.91810130541886 1 2 0
2446 4 -2 -85.10814685086206 12.460481137904324 -88.92164937139941 1 2 0
1571 4 -2 -86.84270801590566 14.985730323651993 -87.04996326897333 1 2 0
398 1 1 -83.61442682425646 23.873960447084364 -83.41212665307522 3 3 1
2773 4 -2 -82.50721622476573 25.934510307876373 -83.13371973560903 3 3 1
870 2 0 -69.71408600630198 47.01859935670685 -82.99188097986394 -1 0 0
765 2 0 -68.65558651990801 48.21140764024512 -86.28796702694909 1 0 0
1657 4 -2 -57.386545338088396 52.143476824464976 -82.22701773904589 -1 -1 0
2133 4 -2 -54.16467354430946 50.40055901436778 -82.23613162803917 -1 -1 0
2480 4 -2 -60.24437825386165 63.96421808165396 -87.86537714561243 0 -2 1
205 1 1 -62.54820117469713 64.5723123165771 -87.87880673010845 0 -2 1
1625 4 -2 -61.71176819546764 65.99329695471343 -86.13559017274144 0 -1 1
1480 3 4 -59.74782722418552 65.2445138766285 -86.26346614355485 0 -2 1
2875 4 -2 -58.24649624240734 66.65326953537712 -86.68271328091235 0 -1 1
590 1 1 -56.83696471183025 66.04498303791152 -84.87282495094878 0 -1 1
1605 4 -2 -58.67736381424021 64.48269978379571 -84.61725966615475 0 -2 1
1602 4 -2 -10.2740778049385 -15.667933619170142 -79.42982049672793 1 -5 -1
969 2 0 -74.94963697449231 -2.3245589696215703 -79.63870623285153 0 1 0
795 2 0 -50.422908562271665 24.76315204214489 -80.36780971379365 2 0 1
81 1 1 -34.50256844933698 32.947652793786226 -75.77625799851158 2 0 0
2770 4 -2 -55.04139040312549 38.1897438917912 -80.30235576653742 -3 -2 2
383 1 1 -56.884558736096004 54.49316825179802 -81.73481424561362 -1 -1 0
1133 3 4 -55.66700589885783 51.49008598587695 -81.20024683481455 -1 -1 0
2888 4 -2 -55.88539950653871 49.95281865376844 -79.78355077841984 -1 -1 0
677 1 1 -54.40857899531963 48.476496963872684 -80.87551666194592 -1 -1 0
1758 4 -2 -55.13543005195196 53.4027290878572 -80.53233310010108 -1 -1 0
787 2 0 -82.4448087621248 65.88510226799534 -75.60760361007237 -2 -1 0
2380 4 -2 -45.94493284354436 -43.89402901045007 -70.03793128698575 1 2 0
25 1 1 -46.234912956929286 -42.392533210171905 -68.11008342934734 1 3 0
1380 3 4 -44.48287961064578 -44.439112876267245 -68.60690311805192 1 2 0
970 2 0 -44.54076596632309 -44.09962635026775 -72.78106506486756 0 0 0
2775 4 -2 -43.17025734601421 -46.02972539874654 -68.96585080704676 1 3 0
1755 4 -2 -43.7222094152739 -42.5085725626801 -68.16380702909026 1 2 0
990 2 0 -36.224393428220736 -33.76115388777348 -72.55358400441513 0 1 0
1053 2 0 -7.623049676682669 -23.435087707719024 -71.4350411696986 -1 -1 1
1519 4 -2 -5.195064541065101 -19.315077028217985 -68.91621219909935 -1 1 0
389 1 1 -7.2680730193686856 -18.34345509992098 -69.7047758206816 -1 1 0
1984 4 -2 -6.897023930202415 -16.614316842364655 -67.82218168918288 0 1 0
1010 2 0 -61.21921802680472 -6.034015492970653 -72.33813706733378 0 0 0
2522 4 -2 -88.35983873808277 25.734354691251404 -72.81289657766193 4 2 -1
188 1 1 -83.85555277574524 32.35808670464478 -74.55243860629999 -1 0 0
1735 4 -2 -34.2257693682492 30.82104361186662 -74.29320322750456 2 0 1
1707 4 -2 -82.50746244818981 34.147958568620375 -74.07753551408939 -1 0 0
916 2 0 -71.62061600562116 33.654521453355294 -74.12237901153165 1 2 0
2167 4 -2 -53.0418123853491 58.96187603872122 -67.7845207288011 -1 0 0
2250 4 -2 -45.82331669246163 -44.51235533886515 -66.97498360650424 2 3 0
2224 4 -2 -18.426139430302776 -43.21339172224825 -61.184470842742144 1 0 0
579 1 1 -16.874886217942276 -45.05689694520702 -61.66273756663901 1 -1 0
1384 3 4 -17.47094945639671 -42.05193921253808 -62.70626969451135 0 -1 0
2754 4 -2 -16.37760435951889 -43.66786338984577 -63.5639275871913 0 -1 0
2484 4 -2 -19.004883310018556 -41.13203906407998 -63.85323853841746 1 -1 0
593 1 1 -14.292318178150445 -43.791632861846 -64.89458317714036 1 3 1
2229 4 -2 -15.68452871636137 -41.15104351704495 -61.98598947881712 1 -1 0
4 1 1 -13.688447574234807 -42.40607223564283 -62.58343884486504 0 -1 0
2868 4 -2 -12.275290161396313 -43.89166848676095 -63.77610970221724 1 3 1
850 2 0 3.902180986253157 -40.29996787697492 -65.43324885843117 0 1 1
762 2 0 -62.14747973521683 -32.281089065821234 -61.35309126500263 1 1 0
2239 4 -2 -9.07324165294682 -19.505054973966846 -63.485998942537435 0 1 0
609 1 1 -6.577523423564017 -21.812699351182367 -67.2274881778204 0 1 0
1889 4 -2 -8.375244555941428 -22.02421398457997 -65.60058964482363 -1 1 0
2614 4 -2 -5.967130992830988 -19.96278490726864 -65.56575547418412 0 1 0
1264 3 4 -8.121896146585009 -19.955534982905576 -65.31122890662952 -1 1 0
2764 4 -2 -7.869828323412335 -19.561947718189153 -67.43530852837665 -1 1 0
1294 3 4 -6.000102285336844 -18.476900952851246 -67.147938255675 -1 1 0
264 1 1 -8.409983026944317 -17.30852899378197 -63.141442068802576 -1 1 0
674 1 1 -5.522131364704315 -18.079099644534544 -63.92644136602243 -1 1 0
2264 4 -2 -6.733778335519226 -15.681927120457253 -63.688570262226335 -1 1 0
2019 4 -2 -7.434790316446339 -17.831251411425377 -65.43812181710648 -1 1 0
1394 3 4 -6.748610977426729 -15.759468804629236 -65.83098348406803 -1 1 0
1067 2 0 -14.5147604977413 -5.409941609502091 -66.78161119521151 -1 0 1
958 2 0 -69.51929042243604 8.844410271914768 -63.25723296210272 1 1 0
757 2 0 -99.68605944124187 64.43320706033595 -63.716369064073646 2 2 0
847 2 0 0.7449852699114317 -45.802004262671005 -55.040836843649025 -1 2 0
2683 4 -2 -45.198464508420415 -23.256145653858443 -60.01387841922306 -2 -2 1
1685 4 -2 -92.30887618425942 17.82349495425367 -58.23845678695605 1 -2 1
1536 4 -2 -93.75479489535803 21.03508244523575 -58.21151869353716 1 -2 0
1411 3 4 -94.0797060399676 18.959989415156336 -58.45662726166458 1 -2 0
198 1 1 -103.79741171538595 38.38090461595555 -55.449825706186296 1 0 0
1692 4 -2 -102.25269073786647 39.47539703826131 -54.04373873150482 1 0 0
1532 4 -2 -78.42695120421519 45.13006381444749 -59.31070687847797 2 -2 0
37 1 1 -77.39184996237132 44.469293823023854 -57.40903455251183 2 -2 0
1925 4 -2 -12.002704280600717 -32.509365515222946 -48.33487802361188 1 3 1
305 1 1 -9.789801857694705 -31.706320053489964 -48.96113861495967 1 2 1
2240 4 -2 -8.07179772907368 -30.732116139564297 -47.71497539909521 -2 -6 1
1077 2 0 -68.84630380576537 -22.407821968345303 -53.20019290072166 -1 -1 0
756 2 0 -57.26031519939036 -10.620169751957683 -53.02179673338 1 0 0
968 2 0 -42.68429687385202 -7.262245805322358 -50.06645420697621 1 1 0
844 2 0 -83.03840425831913 16.376685432379837 -47.76455172813912 0 1 0
920 2 0 -91.45902174371713 21.473168796972608 -46.582072250669455 -1 -3 1
2843 4 -2 -104.29383536324902 37.14333060535915 -53.14521549323073 1 0 0
2692 4 -2 -104.14716853663074 39.55438277186378 -51.12859326307021 1 0 0
2923 4 -2 -101.30195462260576 37.465915179831505 -51.221790174342416 1 0 0
1193 3 4 -102.80520163448907 38.44034330818585 -52.308939833889404 1 0 0
837 2 0 -57.22807580240707 35.195553529536674 -52.13583304450225 -2 -3 1
2812 4 -2 9.557621263869613 -46.02578493912045 -45.63393198839303 2 2 0
874 2 0 -52.584422488690265 -40.6677355532084 -44.822376207913756 0 0 0
1095 2 0 -26.84777403550729 -38.47059371940864 -41.14665550371721 0 0 0
7 1 1 -10.7963639483781 -31.596462691021078 -46.07977216427012 2 -1 -1
823 2 0 -56.33165633210199 13.718200974085 -44.88245285287088 1 0 0
763 2 0 -45.295558433006626 39.65986251531306 -42.4637720092011 2 -1 -1
931 2 0 -42.48586184101731 35.701642224507715 -44.13383703007431 0 -1 0
995 2 0 -45.67097114657173 42.65616822494636 -40.614880480521094 1 0 1
2673 4 -2 -74.32666879763379 55.87304282249692 -44.644993127191476 0 2 0
549 1 1 -74.80871090851656 57.33456172683737 -42.967132731119754 0 2 0
2761 4 -2 -61.341056924216325 -31.397458259743505 -36.401677940357864 4 4 0
895 2 0 -55.325845637294 -23.242236711727607 -36.85522064999384 0 1 1
1538 4 -2 -5.204519608545013 -18.848126807097117 -36.82487711589408 0 0 0
33 1 1 -6.30732218831686 -17.81381231093561 -38.67097405074566 0 0 0
2026 4 -2 -79.54346714873981 21.943615068847798 -32.806944823333716 1 1 0
2271 4 -2 -78.74528772487216 18.56586460811075 -32.58008051488946 1 2 0
2276 4 -2 -76.14999956160051 20.828657991254936 -32.587930028704534 1 1 0
908 2 0 -98.71927767392903 40.041395909269774 -33.465766051553956 0 -1 0
1070 2 0 -82.07823497417803 43.41833727400017 -35.94439608463302 1 2 1
991 2 0 -71.64189733882792 40.978951863262374 -32.9988581572236 1 0 0
628 1 1 -101.45067635531097 58.11769770406968 -37.11601924182951 4 0 -1
2603 4 -2 -100.67720052279611 56.03490115877664 -37.54741104974347 5 0 -1
261 1 1 -78.03600547226065 59.74711747247593 -35.712586424916154 2 0 0
1762 4 -2 -80.29992964938833 60.60352838226965 -35.39530368852842 2 0 0
1792 4 -2 -77.59130822240873 62.03139320941431 -35.113642923940915 2 0 0
1137 3 4 -79.62687269814336 62.59389265951081 -35.203667276890265 2 0 0
42 1 1 -81.44734880969972 65.26799820979363 -35.43967137240611 2 0 0
2636 4 -2 -80.04022953953833 63.881535873869915 -36.80514881890099 2 0 0
1661 4 -2 -80.63794858193842 63.79209372071309 -33.802856194022176 2 0 0
835 2 0 -42.757279546512876 -45.96103099542984 -25.745637662758266 0 -2 0
436 1 1 -39.1804584846741 -46.70113640234223 -31.55580757835761 0 1 0
2311 4 -2 -40.535004963685694 -47.661429394733275 -29.84660686530328 0 1 0
860 2 0 -47.46778157480024 -6.017033614667703 -25.832727065547346 1 1 1
281 1 1 -79.06167372627559 17.947432607169965 -30.328030822286 1 1 0
1276 3 4 -78.17123933451376 20.534553617237812 -32.05697187747078 1 1 0
1991 4 -2 -78.41304751462346 20.215463305064056 -29.974106444308493 2 2 0
2505 4 -2 -66.0502363356678 31.5891218472539 -27.363944587765 -1 -2 1
2280 4 -2 -68.0386824832349 34.409243684943185 -27.909832710005738 -1 -2 1
1280 3 4 -66.06308649085808 33.67462661012777 -27.76090068423407 -1 -2 1
1900 4 -2 -64.88102684927135 34.178252641868234 -29.404411035967712 -1 -1 1
2030 4 -2 -65.15125168384209 34.1525242700046 -25.89236642943701 -1 -2 1
518 1 1 -93.13479588331897 46.7543189784893 -25.99114350577902 0 -2 1
2362 4 -2 -91.53365168455916 48.348216431770346 -25.94302734892461 1 -2 1
1007 2 0 -94.13538724324184 50.01634350379384 -26.502029860887003 1 -1 0
1088 2 0 -119.34194130264066 62.7655160623794 -32.27197677024162 1 2 0
1022 2 0 -53.645896154160766 58.39013180641833 -27.41973899910394 0 1 0
1311 3 4 -107.9792636155291 69.42551635618295 -29.829979703604163 0 0 0
2061 4 -2 -106.78152910074849 69.08845113515952 -28.127397803388106 0 0 0
2511 4 -2 -106.38309555196733 70.32789704291665 -30.918907455554614 0 0 0
661 1 1 -104.79941496709588 69.86999345512223 -29.1505400652811 0 0 0
1906 4 -2 -108.82281871634262 67.68434732610419 -30.630977395190705 0 0 0
1093 2 0 -2.829575877211056 -44.140376961211686 -23.444308905223725 2 1 0
1045 2 0 -44.821470478207 18.462525305139756 -25.004905787652643 -1 -1 1
630 1 1 -65.28161139934949 31.91505284271428 -25.16098707477116 -1 -2 1
999 2 0 -90.71139277493165 34.7847131398563 -19.838042076389723 -2 -2 0
801 2 0 -70.30172344441809 59.19560217502289 -24.626321246534186 1 -1 0
1083 2 0 -42.38617062241423 -47.93063543156559 -17.944822811413214 1 2 1
431 1 1 -52.12713182730381 -37.01444407301962 -12.890428478960736 1 1 0
2101 4 -2 -52.3341905825835 -34.79177308389532 -11.7726723106114 1 1 0
1587 4 -2 -49.65892437562157 -37.72263057964377 -12.882020506818755 1 1 0
701 1 1 -49.98064385756607 -35.628611401178674 -11.781017712838992 1 1 0
2971 4 -2 -42.334929022284605 -27.99075597657946 -11.704505734849112 -1 0 0
1079 2 0 -16.33333146873253 -23.213540765786707 -17.611871023579635 1 1 0
2488 4 -2 -89.44684823430728 39.05423703532393 -14.547488406068235 1 -1 0
1488 3 4 -88.79429805250916 37.7492783121994 -13.025657562107863 1 -1 0
1863 4 -2 -89.84008049288924 35.94400448246177 -12.722623667745317 1 -1 0
322 1 1 -87.51998592081213 38.66916841970464 -15.892869758732916 0 -1 0
1613 4 -2 -86.89866134858191 37.44527882116609 -13.892871539790699 1 -1 0
845 2 0 -50.867303647532125 50.04616029551617 -16.169982256415647 -1 -2 0
1113 2 0 -85.26989982837856 58.05365436238001 -16.14140509421344 2 1 0
1122 2 0 -61.70214871705146 57.409811104200095 -14.496852055700492 0 0 0
1951 4 -2 -56.912822975736475 -45.03424656015398 -6.104805123505637 1 1 0
1486 3 4 -56.04726221372606 -46.868378910023694 -6.917936400778932 1 1 0
2491 4 -2 -54.932807584755125 -46.96387788619708 -8.746568525988494 1 1 0
1236 3 4 -52.94284033467512 -47.112381005938204 -7.7825088148589705 1 1 0
2740 4 -2 -54.16088527485194 -45.75867603250851 -6.594257031986153 1 1 1
696 1 1 -54.973910002182436 -43.521821265632894 -6.067464448322397 1 2 0
1640 4 -2 -54.37717492981069 -48.16786506882408 -6.231672745567414 0 1 1
1491 3 4 -53.85009451625886 -46.693063612117 -4.592323407410793 1 1 0
2586 4 -2 -56.054404306909895 -46.99718196357658 -4.723101168209067 1 1 0
2861 4 -2 -51.38338326487383 -45.816413211348596 -8.433691527044063 1 1 0
745 1 1 -50.283624500572074 -45.73918151491673 -6.361672688578133 1 1 1
2361 4 -2 -52.04596620711675 -47.23193908151051 -5.724595055508478 1 1 0
861 2 0 -44.54631073338372 -46.36811265206995 -9.770346717262749 2 1 -1
782 2 0 -44.82623760314075 -47.24819893808755 -6.6846933294994475 0 -1 0
829 2 0 -27.76108437712254 -46.3548662216624 -7.568157522109696 2 0 1
1112 2 0 6.754324162783483 -42.07468776535135 -5.426146396504488 2 1 0
1946 4 -2 -56.420012547599335 -36.5790519712511 -7.975847982693376 1 2 0
527 1 1 -54.72639216713136 -38.07409988328743 -8.688209774588675 1 1 0
2351 4 -2 -53.1424720889149 -37.653450835877585 -10.67341114260874 1 1 0
1971 4 -2 -53.50134572670352 -36.16932014628601 -7.909445600643411 1 2 0
1346 3 4 -55.183266435397485 -34.90913179908784 -7.44344485783924 1 2 0
1351 3 4 -52.893121483728805 -35.640828544303304 -9.92095908358653 1 1 0
1941 4 -2 -56.13667608195556 -34.44847209184181 -5.569716188049661 1 2 0
2721 4 -2 -54.52323268579572 -34.27565253452341 -9.395189334509242 1 2 0
2701 4 -2 -53.75642831368329 -33.69774770390598 -6.302835866349181 1 1 0
607 1 1 -50.613651205877 -38.07272250720474 -10.714571903241403 1 1 0
2576 4 -2 -50.820110244652 -35.757187914391196 -9.347522869075787 1 1 0
326 1 1 -51.58007771250704 -35.244860089365005 -6.906761525320346 1 1 0
427 1 1 -53.35214804610105 -30.443111710100528 -4.657791152705691 1 1 0
1326 3 4 -54.62452317506678 -33.53773526172101 -4.35839223936475 1 1 0
1802 4 -2 -55.53529857727321 -31.54522296387216 -4.2349080714707235 1 1 0
533 1 1 -56.09154439225287 -9.00735747557544 -4.128860749060321 0 -1 0
2048 4 -2 -32.87985053765336 -5.70035835706161 -6.539708724296854 1 1 0
1323 3 4 -32.56021644554632 -4.319563203603607 -8.089717494164512 1 1 0
2548 4 -2 -31.448668587380023 -4.8612768344551895 -9.784153484655466 1 1 0
2622 4 -2 -46.10382771859359 -3.245315561698334 -10.422130890103523 4 -1 0
202 1 1 -44.33689025208271 -1.775004243188782 -10.658161508515832 4 -2 0
2073 4 -2 -34.225151812289575 -3.5574692112376667 -9.147799911035172 1 1 0
2423 4 -2 -31.574373498623057 -2.4891521131216194 -7.679212339141723 1 1 0
173 1 1 -32.311196588966745 -2.2830816322776357 -10.050691295952335 1 1 0
1600 4 -2 -55.8471153718334 8.321467349004152 -4.279485516041831 0 0 0
422 1 1 -45.85180836805021 9.66767707831157 -8.19152077178944 0 1 0
2567 4 -2 -44.55162603456264 8.597074625583282 -9.765104806589255 1 1 0
2510 4 -2 -52.01345042744831 16.29547297273917 -4.606371481615847 1 1 0
1285 3 4 -51.195361224785756 18.19483767668175 -4.923399461751271 1 1 0
2035 4 -2 -51.045058126653124 19.051467378600115 -6.852241419399778 1 1 0
405 1 1 -49.714011897889726 20.51083673112594 -5.189350764046376 1 1 0
1885 4 -2 -49.18785512762685 18.36154029850247 -4.267852971063444 1 1 0
942 2 0 -88.63263233047164 29.637936249851556 -5.0545137371666655 2 0 0
84 1 1 -85.13785212250916 26.92002110945223 -4.580168387664 -2 -1 0
108 1 1 -90.20033924704344 36.38839160381605 -10.38952433334947 1 -1 0
2208 4 -2 -89.00225427206831 38.34804244022123 -11.015800924451518 1 -1 0
457 1 1 -123.68622990881425 69.37307077600985 -8.365830285699353 1 0 0
2486 4 -2 -121.19572464276564 69.69753336270071 -8.417545417222637 1 0 0
276 1 1 -120.88428442820384 69.13216377624664 -6.096765805099525 1 0 0
2962 4 -2 -57.524977114433696 -45.596146553479024 -1.8195803914322546 1 1 0
306 1 1 -59.092113376886516 -41.237838332196006 -3.0284559776764675 1 1 0
1207 3 4 -56.84518023688599 -45.20318189934396 -3.851414812238595 1 1 0
2111 4 -2 -58.05753398258254 -43.42733051222403 -3.631623656620123 1 1 0
1611 4 -2 -54.69952619127786 -44.80898318920387 -3.909388606537448 1 1 0
292 1 1 -53.353149200703776 -44.59974348259897 -1.876999993817012 1 2 0
2206 4 -2 -52.902297314185915 -46.978285274552604 -2.7087666169778903 1 1 0
2 1 1 -53.824783475363745 -45.52722829500892 1.1321888556892068 1 1 0
321 1 1 -50.06154334590111 -45.06501498431427 0.18508516427229527 1 2 0
2437 4 -2 -52.238057844372754 -43.92310910414008 0.3330934102220847 1 1 0
137 1 1 -50.96519092717504 -42.94243582538366 2.0897026948921704 1 1 0
132 1 1 -50.13232243920009 -48.45430908283447 -0.44908778445632075 1 1 0
167 1 1 -45.30473804539395 -47.68484856745919 -1.861487307655212 0 1 0
2177 4 -2 -48.459847592352844 -46.82361156838098 0.5961171639321746 1 1 0
113 1 1 -47.22045227640633 -42.66254081244502 2.8540801851312456 1 1 0
2832 4 -2 -49.335951817543595 -41.14167468144369 2.7588546206067104 1 1 0
107 1 1 -44.99896049461836 -42.212613669736506 -0.6235172331967752 1 1 0
1947 4 -2 -42.90228057526877 -48.43983873492774 2.576587606121867 1 2 0
2487 4 -2 -44.342267508100555 -42.1254859335476 2.768344222535371 1 1 0
27 1 1 -56.0191090214722 -35.81295734097543 -1.7645534467834239 1 1 0
2326 4 -2 -53.83959612765082 -35.12417151627207 -3.1033920023360895 1 1 0
1827 4 -2 -54.79626642313493 -35.019955784645376 0.12154998852747474 1 1 0
1202 3 4 -53.573640551853025 -33.94404437254499 -1.282013538001845 1 1 0
271 1 1 -50.649401850866056 -39.872033532515715 1.1000069734438391 1 2 0
242 1 1 -49.648341742916 -36.780145703736224 1.3373548544267853 1 1 0
1952 4 -2 -46.671365900018316 -40.75748566530316 1.3762916008099082 1 1 0
2357 4 -2 -46.43651648399031 -40.67113060064172 -2.218261960773931 1 1 0
396 1 1 -45.97032266240563 -38.7060015018277 -3.5379501045883432 1 2 0
2332 4 -2 -46.18658810633004 -37.553021500999286 -1.4384675109876157 1 1 0
1332 3 4 -46.52931049907214 -39.413578867869916 -0.46484974001622803 1 1 0
2557 4 -2 -48.3585433012639 -38.880262362741476 0.596347230380644 1 1 0
2082 4 -2 -45.8812673617744 -38.40265678601067 1.3631654243081028 1 1 0
452 1 1 -47.02469045408974 -36.33376360880231 0.5673529335813232 1 1 0
1457 3 4 -47.95869753965503 -39.41268283430594 2.756722698918824 1 1 0
2582 4 -2 -45.188857543499005 -35.44779676361761 1.8686095410783632 1 1 0
2957 4 -2 -51.527016146907705 -33.91922365233523 -0.6857922352045928 1 1 0
1927 4 -2 -47.68253743954476 -37.22456937284023 2.89907968778319 1 1 0
2827 4 -2 -44.403918632391076 -39.92026171797652 -0.0004443901485657987 1 1 0