LAMMPS data file via write_data, version 29 Aug 2024, timestep = 420002, units = metal

3000 atoms
4 atom types

-41.78686575415965 67.04077375481259 xlo xhi
-36.18848915265204 58.059016153602734 ylo yhi
-103.32051994235587 165.76231494064905 zlo zhi
-54.41381113578579 0 0 xy xz yz

Masses

1 6.941
2 151.964
3 28.0855
4 15.9994

Atoms # charge

797 2 0 -32.001341164703064 -32.88290175084968 -103.18774603399252 2 1 0
801 2 0 -22.91918641228692 -31.217720160800624 -101.95356199348858 2 -1 1
1071 2 0 -31.004466161493248 -23.310377134251205 -99.42890706185457 1 1 0
961 2 0 -36.50437884701297 -21.644880018944182 -101.03280088040138 0 0 -1
936 2 0 -21.920181644156656 3.583159091525154 -102.67291339069332 2 1 0
1510 4 -2 -12.705557340845449 3.8058293837109076 -101.70201668502305 -2 -3 7
710 1 1 -11.755619319697281 5.430575326473139 -103.19360801991175 -1 -1 2
944 2 0 -54.51674819397251 16.659675627768173 -99.99496443367069 0 1 0
2239 4 -2 -81.22524285107335 36.29185745423297 -99.91998722702517 0 2 -1
1889 4 -2 -77.49282209964491 34.72642918203066 -100.4447643855946 -1 2 -1
1264 3 4 -79.12645221583733 36.1460578776434 -100.22934581791775 -1 2 -1
2614 4 -2 -79.9532729595862 34.48466235815427 -101.38431497164046 0 2 -1
609 1 1 -77.9299570112191 34.48754453223475 -102.94482304281318 0 2 -1
2019 4 -2 -78.42711919906296 32.20567931223758 -102.34177961853501 -1 2 -1
1294 3 4 -78.68183126498187 32.89192430157716 -100.35506677174823 -1 2 -1
2264 4 -2 -79.53698678945169 34.444631943618106 -98.9378750976589 -1 2 -1
2519 4 -2 -77.78856490369486 31.998417895202095 -98.63160084756942 -1 2 -1
674 1 1 -77.21339322999441 34.2223680043348 -97.89070359733024 -1 2 -1
1394 3 4 -81.62597315445964 34.17406463169905 -99.92491215689216 -1 2 -1
144 1 1 -81.01198023840477 32.48596216724532 -102.56480759259226 -1 2 -1
2764 4 -2 -80.69224432560759 32.189280301469665 -100.0478990556566 -1 2 -1
264 1 1 -80.24473530359275 32.451683078582306 -97.5388244736586 -1 2 -1
761 2 0 -57.06728015852103 30.12175951236621 -98.32985262683025 2 2 1
1984 4 -2 -78.19159735766067 37.96754244188848 -100.65091543893043 0 2 -1
1744 4 -2 -93.35591468273287 53.915216207418794 -101.88383530702384 0 2 1
915 2 0 -30.49442433090668 -26.102329471696354 -93.27092585776552 1 0 1
2897 4 -2 -39.98883032757815 -8.292534747108984 -94.25824375177604 4 7 3
627 1 1 -38.48202597521201 -8.57513524407404 -92.58895347465837 -6 -9 -3
866 2 0 -23.15956034274681 13.735726753160641 -94.68514468589076 0 -4 1
819 2 0 -26.843755011716475 26.374532925735558 -95.73137307202707 1 -2 -1
341 1 1 -39.2481410527757 -16.51499382720918 -86.81126405768002 3 -1 0
2216 4 -2 -38.67869116500901 -17.83833909201366 -84.86343572388994 3 -1 0
2591 4 -2 -39.88737688299989 -16.24598577215942 -82.01167871095757 3 -1 0
1366 3 4 -38.180419130431005 -16.50384258901486 -83.22630525281492 3 -1 0
1616 4 -2 -37.48112288085555 -17.98141248965122 -87.65925264867698 3 -1 0
1496 3 4 -36.70602663614415 -17.511906758524734 -85.75051694156595 3 -1 0
2866 4 -2 -34.67490558599484 -16.964877188021006 -85.9678938324513 3 -1 0
2366 4 -2 -36.46564532642199 -17.76669131666447 -83.61286720428811 3 -1 0
2496 4 -2 -37.53249299744536 -15.60702988240346 -85.1043677482322 3 -1 0
171 1 1 -35.040111321573065 -15.789505961979128 -83.78989042589077 3 -1 0
2116 4 -2 -37.004063252498746 -15.134448620219143 -82.0956922352047 3 -1 0
2151 4 -2 -23.351331143771695 -11.767765042138087 -80.99116814390139 0 -2 0
2649 4 -2 -31.430283028014262 -5.353306070094401 -86.32075250106054 -2 -7 2
449 1 1 -30.62475705780603 -7.012423175502299 -84.9710845857778 -2 -7 2
1003 2 0 -61.575985635306566 1.9780369050174897 -86.30766678100649 2 -2 0
1865 4 -2 -78.4282315878998 36.303938575303675 -84.42070571314065 -4 -3 1
1240 3 4 -77.5634356629854 36.21804092327082 -86.33854219596444 -4 -3 1
1639 4 -2 -78.3420496159913 34.326386936719416 -86.86474733050744 -5 -3 1
115 1 1 -80.25504467716618 35.70436848753539 -86.0600944238772 -4 -3 1
923 2 0 -49.21075583619059 30.81809322184408 -84.02365365399324 1 -5 0
2995 4 -2 -75.53494118056503 36.65859276467447 -86.65103193758145 -4 -3 1
2739 4 -2 -79.00721847315455 37.41301861726541 -87.31978253878948 -4 -3 1
770 2 0 -48.18392487060342 48.786796310848004 -85.88545475615012 -3 -1 0
943 2 0 -36.38265179373916 -23.190393364154232 -77.5395013079459 -2 -4 1
752 2 0 -7.4582368418055225 -19.954897023599898 -75.17965493810765 -1 0 1
956 2 0 -1.0290871378167807 -15.7248283881842 -75.05663813115416 0 2 0
491 1 1 -39.03825424903764 -14.414452981565994 -80.5771821258006 3 -1 0
1666 4 -2 -38.320796719769056 -12.393322767905197 -79.45098945527526 1 4 1
622 1 1 -36.557720282942036 -13.16391553594682 -80.83431585837106 2 4 1
887 2 0 -32.90642977622582 -12.33877615353628 -76.71588537119491 3 -3 -1
2801 4 -2 -26.293679694191837 -10.02310397706854 -80.75792497112629 0 -2 0
1431 3 4 -24.82099088020687 -11.052677737423096 -79.64229588865756 0 -2 0
1556 4 -2 -25.78233485107462 -12.719492673610027 -78.74761893781294 0 -2 0
2431 4 -2 -23.99826260502181 -9.744264945082474 -78.20546935935226 0 -2 0
518 1 1 -53.39035884857856 -1.8250036104039893 -73.63528446767961 2 -6 2
2362 4 -2 -54.74028212397039 -3.446221862939865 -74.44143956658412 3 -6 2
762 2 0 -60.341592967774204 6.010446383450379 -79.96410187859388 2 0 0
1733 4 -2 -48.8677054451127 6.7541980515031526 -75.82427141786036 -1 0 -1
1209 3 4 -47.11266904919061 6.740010834534239 -74.68684512331706 -1 0 -1
2708 4 -2 -45.388695361679396 5.714864289164417 -75.37330125113557 -1 0 -1
2829 4 -2 -46.00823461417677 8.455860739607829 -74.091547934673 -1 0 -1
1906 4 -2 -69.25213203894995 34.60232090156086 -76.34446658104848 -1 -1 1
661 1 1 -71.37637894591602 35.71484127248408 -76.05393076239845 -1 -1 1
1311 3 4 -68.2142547207393 36.017219341930684 -75.16948449842117 -1 -1 1
2311 4 -2 -67.03775505373439 35.45822784739144 -73.51861511506966 -1 -1 1
1997 4 -2 -54.71758492614326 35.09842693635781 -73.63128778521059 3 0 -1
2511 4 -2 -69.97342257003015 37.08851660717525 -74.72232705087897 -1 -1 1
2061 4 -2 -66.6696450961021 37.196472800778764 -75.99154488607238 -1 -1 1
436 1 1 -65.3228209381332 37.07903277164104 -74.04732407459562 -1 -1 1
2964 4 -2 -47.23550220959251 5.8455460970337185 -72.76859307426852 -1 0 -1
584 1 1 -44.807189891757886 6.489295005463006 -73.07879314331963 -1 0 -1
671 1 1 -38.99813226772335 4.8175979277564664 -67.81076086510438 3 2 -1
2671 4 -2 -37.04183718919825 4.299469609541987 -66.75759559029333 3 2 -1
281 1 1 -26.99480338568381 5.48475157602514 -68.32723429681734 0 3 -1
2276 4 -2 -25.32052523790209 4.332879118048702 -69.81761854281328 0 3 -1
1276 3 4 -24.14269253698725 5.5242889896131615 -68.51427685558525 0 3 -1
2026 4 -2 -25.14120052443184 4.939611896038144 -66.74213193363187 0 3 -1
2271 4 -2 -22.057543985178718 5.427743448838449 -68.6214463280059 0 4 -1
1991 4 -2 -25.122495336651465 7.378546948135494 -68.78823938706087 1 4 -1
2814 4 -2 -81.29334668076984 33.53746548586706 -73.13407542342914 0 -3 1
2252 4 -2 -55.40832969350474 32.123455626650426 -72.85091884058541 2 -1 -1
402 1 1 -56.80302015178606 34.22017360562967 -72.68565671578367 2 -1 -1
2382 4 -2 -55.35454508891688 34.416215513004985 -70.68258717099386 2 -1 -1
1252 3 4 -54.10033185766936 33.65515774938885 -72.20698348163327 2 -1 -1
2602 4 -2 -52.04923662547788 33.27388888516596 -72.00730538805469 3 -1 -1
999 2 0 -68.03908472033201 39.00899577117252 -68.59349249994773 -4 -3 0
75 1 1 -31.096311950497494 39.19032576100935 -67.84040488155559 1 -1 0
1820 4 -2 -31.301410148365914 39.25038725163097 -70.2425087051734 1 -1 0
1627 4 -2 -60.89912090660593 45.115202388138655 -69.07057453616873 -5 -9 -3
125 1 1 -51.13384025947628 47.467364317599575 -70.31017715606308 3 4 2
2719 4 -2 -49.0444800749842 46.04230387541868 -70.86266761012921 3 4 2
1845 4 -2 -49.99474030261569 48.78765475307118 -72.16413840410803 3 4 2
1220 3 4 -48.40040033682949 48.05986713194444 -70.96235795449452 3 4 2
2975 4 -2 -49.25359030037439 48.58414001568215 -69.08665087690508 3 4 2
2594 4 -2 -46.38146138625516 48.46896437864717 -71.29026126745511 3 4 2
793 2 0 -76.01905466023757 52.86278024551507 -70.92856617540664 2 0 0
1094 2 0 -50.08561726683031 55.367613681875596 -70.7004685456828 1 -2 0
934 2 0 5.749114421061918 -30.78585842946078 -60.3624728598991 -1 -1 0
856 2 0 -17.146557361589114 6.273939816182171 -65.6275972828784 0 -2 0
1089 2 0 -41.3856127671228 14.325859450714333 -64.09356287235467 -1 -2 0
1119 2 0 -69.47089318253103 16.812775732186886 -59.983470381048065 0 1 1
877 2 0 -33.509156727598054 19.485782962110704 -62.62134907159284 -2 -4 3
858 2 0 -68.85111749215883 23.14311262711606 -61.53154422323855 1 0 -1
1628 4 -2 -31.339050291952464 31.963037645558074 -60.44131397595512 9 6 -2
202 1 1 -54.3610654653824 41.468945196009614 -62.894952894818104 9 -5 2
2622 4 -2 -53.534059060762175 41.021241525981566 -60.823827916224346 9 -4 2
2088 4 -2 -40.630134090793156 41.461989069980945 -62.99571746445076 -2 -3 1
393 1 1 -42.39264381695737 43.16572137904741 -63.01802345056478 -3 -3 1
1338 3 4 -40.22105876337949 41.678123606937675 -60.93571151430667 -2 -3 1
2338 4 -2 -41.53460931688911 43.30493903734772 -60.75478730617897 -2 -3 1
2093 4 -2 -38.20026356643941 41.82098398884747 -60.329484307787396 -2 -3 1
1933 4 -2 -40.57141122487005 40.010807591230844 -59.68887887967627 -2 -3 1
308 1 1 -38.34197495157342 40.00077758942996 -58.77693241615774 -2 -3 1
2125 4 -2 -44.632032973602605 -9.280982634831965 -51.40262091894648 -7 0 -2
844 2 0 -34.31199524877126 -0.5241713655898792 -53.60640020251411 1 2 0
960 2 0 -57.14528321696194 3.533400456556244 -52.50473693637317 -6 -4 0
998 2 0 -58.74355194822226 1.5853043081411755 -56.24394981567063 3 3 0
939 2 0 -42.55313361503221 25.347068639100456 -54.441575396856614 1 -2 1
974 2 0 -42.57106233217395 28.081551826173296 -52.02808316026454 2 2 0
1047 2 0 -40.481477868360734 25.1847021990314 -51.5634149716935 -1 -2 -1
1021 2 0 -77.86881375607919 31.18938663131341 -51.26370121260568 -2 -1 1
1031 2 0 -41.906832478261705 29.954303761116307 -55.516189352072054 1 3 1
578 1 1 -33.7879595758036 35.89042403987692 -52.395974487684 -5 1 1
2652 4 -2 -52.74173890852019 49.99140848769005 -52.83134716289826 3 -6 -1
1543 4 -2 -35.656591516426516 -29.07286041595874 -47.09599069488845 -5 -2 -1
1418 3 4 -34.21641495090715 -29.150000558458746 -45.53778371166228 -5 -2 -1
2418 4 -2 -34.24110322093396 -31.277402335834065 -45.411826912152875 -5 -2 -1
519 1 1 -36.02677308701009 -31.48862536124544 -47.40732911019416 -4 -7 1
2424 4 -2 -36.53250139992826 -33.91486943045081 -47.45465974171775 -4 -7 1
513 1 1 -34.87316168390077 -33.52915842179082 -45.80766706884562 -5 -2 -1
2788 4 -2 -32.29098829688237 -28.487134853882655 -46.054670583637595 -5 -2 -1
2138 4 -2 -34.906091639303924 -28.265009074585965 -43.75421789401013 -5 -2 -1
825 2 0 -29.6520498379196 -27.63808755561527 -44.159054913266836 -1 3 2
2989 4 -2 -51.863684200871226 -17.325611359132782 -45.93507895814847 -1 -3 0
509 1 1 -49.990157662496365 -16.560065658278628 -44.356224757860836 -2 -3 0
633 1 1 -52.56441209898492 -14.934249272268325 -46.16812043337423 -2 -3 0
2894 4 -2 -52.146797034899365 -15.362874229645197 -43.77891933398232 -2 -3 0
1859 4 -2 -53.949757421721635 -13.109324759881542 -44.795416422145465 -1 -3 0
816 2 0 -12.750669259362343 -0.3957371877521467 -43.558238359096336 2 1 0
933 2 0 -23.064692901471535 4.522800477737242 -45.10647557304919 0 2 -1
968 2 0 -29.688526105537576 14.991688254098449 -43.9602365654007 1 1 0
795 2 0 -54.236638631265436 33.85599593004105 -43.70002582521419 3 -1 1
1727 4 -2 -34.165495045052616 36.75324497938706 -50.31197806057744 -5 1 1
48 1 1 -52.29132573224935 49.785532982041275 -50.49143502179512 3 -5 -1
2857 4 -2 -52.55577963773629 50.500970986240105 -44.649314699013686 -1 -1 1
2731 4 -2 -51.88015282845154 49.783176343404506 -48.0794910100815 -1 -1 1
1607 4 -2 -51.83688404479701 47.263923962531635 -45.716418096593884 -1 -1 1
1232 3 4 -51.49589155869887 49.31403531051262 -46.066296442698125 -1 -1 1
2987 4 -2 -49.5482432417398 49.89057390941534 -45.484514209921926 -1 -1 1
931 2 0 -33.25919701787236 -32.40941528821305 -36.37192208390588 1 1 0
1096 2 0 -9.469826999089108 -29.303371508122016 -37.665995868306005 0 0 0
871 2 0 -5.264956874984591 -29.32974151882969 -36.29754093230214 4 4 -1
954 2 0 -1.8162473844868998 -34.28850027644667 -43.081765056374344 0 0 0
1234 3 4 -54.14652685524701 -14.55139366853674 -43.253120678069074 -1 -3 0
1864 4 -2 -51.36920078414841 -17.718346626818892 -42.76719936114208 -1 -3 0
1139 3 4 -51.563004332501954 -15.861216613208128 -41.675878223819375 -2 -3 0
1764 4 -2 -51.888884470366015 -16.739517241565625 -39.76953909242513 -2 -3 0
1638 4 -2 -49.7218411858691 -14.966242012801441 -42.16036765182131 -2 -3 0
2613 4 -2 -52.83922203949779 -14.069352501442204 -41.59330142628223 -1 -3 0
908 2 0 -49.91208723728066 -8.146563240633196 -39.281020488502435 0 -1 0
114 1 1 -50.99495832646757 -13.19989118635084 -43.27220207240566 -1 -3 0
1090 2 0 -20.160178682369477 2.3125202774484563 -40.87920355584803 -2 -3 0
1049 2 0 -31.543147076425985 26.19443499876037 -42.526084012409726 1 1 0
2245 4 -2 -58.87875670812031 36.27059898674288 -36.65658927690208 0 6 1
2527 4 -2 -34.40264348760816 42.64462930601309 -38.42447454723927 6 2 0
58 1 1 -33.58689664323629 40.68155140998833 -37.400900427522835 6 2 0
2052 4 -2 -38.84274690629055 47.07671826731108 -40.25401209453707 6 2 0
657 1 1 -38.18406561747485 46.08538208419084 -37.940193027188165 6 2 0
2502 4 -2 -37.154371809022436 45.91890601882463 -43.139278026663796 6 2 0
297 1 1 -35.691506854731465 43.990097089241715 -43.38695116636022 6 3 0
2027 4 -2 -35.65474293945645 44.310497123143335 -41.02307569249071 6 2 0
1302 3 4 -37.29025615731013 45.84291544905129 -41.0231601465775 6 2 0
1922 4 -2 -37.84970750497117 44.26418856883642 -39.648823072858825 6 3 0
1277 3 4 -35.81673042243305 44.158886140235865 -38.858957511365254 6 2 0
2057 4 -2 -36.01245388975702 46.26219784330607 -39.3252240278841 6 2 0
2302 4 -2 -36.33224532743403 44.39320737635559 -36.82780351143559 6 2 0
1602 4 -2 -84.42732885341212 52.43209085680242 -41.39367066013901 -5 -7 -2
641 1 1 -51.88062927537004 51.060539133006245 -42.40885128695232 9 7 -1
736 1 1 -49.16684992806753 51.08079180150756 -43.44107346476249 -1 -1 1
2932 4 -2 -49.90830292199939 51.96724633759945 -41.37383202084958 10 7 -1
2770 4 -2 5.093496831416729 -33.628857915614745 -30.534254672940104 -9 -5 1
1928 4 -2 -5.245543608437593 -23.606276944125295 -32.72023095110428 4 -4 -1
473 1 1 -3.8492008755206797 -22.70714703581612 -31.126461748675034 4 -3 -1
1064 2 0 -1.1242791042517126 -25.900499592272933 -32.5126186781555 3 6 1
2777 4 -2 -8.476924538334728 -6.359249428437771 -33.004521927328256 2 -1 -1
927 2 0 -52.392392349432185 1.9255543493290261 -29.66905177986398 -1 0 0
2917 4 -2 -40.51023157196265 14.091538390066106 -32.911293742010145 2 3 2
626 1 1 -69.99086801908672 21.48689353566001 -31.502216827105812 -1 -4 0
1626 4 -2 -69.85653528014342 20.819810736771984 -33.700765490674186 -1 -4 0
1862 4 -2 -44.18967748324539 25.014523409230648 -29.962109005405996 0 3 0
706 1 1 -44.066536314913755 22.94468645509083 -28.721145181110064 0 3 0
986 2 0 -31.669332739429773 22.028449113077137 -35.440483615207484 5 2 0
435 1 1 -35.003933289924575 42.45693173142557 -35.82718054277862 9 0 -1
2685 4 -2 -33.837142900040874 40.48911367085833 -35.064241974871095 9 0 -1
1070 2 0 -87.74951055473628 49.48623844593082 -28.90287071406383 2 3 1
1038 2 0 -72.90090498043375 45.79249390058284 -30.87308472346611 -1 1 -1
1775 4 -2 -59.92428652135096 49.85284467344161 -35.18784384245002 -3 -1 3
57 1 1 -48.04131322049962 50.44299406014119 -31.001085255130988 2 2 0
2977 4 -2 -46.83926823957869 46.09449063231088 -31.390367539209958 0 -1 1
1872 4 -2 -46.114643102014355 48.99182892376734 -30.848433472677485 0 0 1
1646 4 -2 -49.03364967108064 48.55783537048784 -29.9452065239939 -1 0 1
1247 3 4 -47.232955561820006 47.46758144635706 -29.84444426721772 0 0 1
8 1 1 -45.36584593909233 47.54411334691771 -32.64019395204223 -5 -6 1
2555 4 -2 -29.346290931910254 -34.93385113316401 -28.259506546915823 3 1 1
789 2 0 -41.355918391313125 -26.304394764565558 -25.611868161530907 -1 0 0
2321 4 -2 -3.9996210559604535 -28.289494632917812 -21.716776307678373 -3 -1 1
146 1 1 -3.56105901466875 -26.113727947596182 -22.466513061694744 -3 -1 1
2546 4 -2 -1.2697258363136754 -26.759083642528164 -21.844861866313305 -3 -1 1
721 1 1 -10.674423564250702 -16.311061303481022 -22.707928307436987 1 0 0
2817 4 -2 -9.77389594966452 -14.472006287908158 -23.962785818349655 1 0 0
840 2 0 -2.073437038778927 -15.899832053848435 -27.630406921085147 -3 -2 -1
577 1 1 -6.025510168498222 -17.229849527105458 -24.055789256226767 1 -1 0
2691 4 -2 -8.358503785370424 -17.259259324811705 -23.267172175725708 1 0 0
1197 3 4 -8.018320966020873 -15.163866564098683 -22.920808310810255 1 0 0
2947 4 -2 -6.08304243989587 -15.683202400423685 -21.992929459238272 1 0 0
2571 4 -2 -6.5360936829471825 -14.877992827035023 -24.567551707107672 1 0 0
2696 4 -2 -3.5434667808432962 -15.275011797507386 -24.26944793442197 1 0 0
1192 3 4 -5.012081852150061 -14.222613473095347 -23.158970784253455 1 0 0
102 1 1 -8.045660796184606 -13.019513027741365 -24.96232547116281 1 -1 0
1817 4 -2 -6.949012422249716 -13.268960479380311 -22.689144377007466 1 0 0
2927 4 -2 -4.082441425515071 -13.105106544464505 -21.6411429020692 1 -1 0
1034 2 0 -37.94148429010801 -1.305980521169218 -27.599551895403394 2 -1 0
874 2 0 -18.210146943065347 -4.473849268688589 -26.21783668047891 -1 -1 0
1059 2 0 -15.433622643232795 -0.6069193012937717 -27.81703324633993 1 0 1
868 2 0 -12.22042868104921 1.2240971132274723 -27.24552949994812 1 0 0
1044 2 0 -40.307077032631206 10.521607521553548 -22.397063700316952 0 -1 0
1629 4 -2 -67.78954995447847 19.94519208628723 -22.113113981047558 3 -1 0
2985 4 -2 -67.06587557833987 21.499237039647817 -25.076964421591352 4 -1 0
1230 3 4 -66.46403174415919 21.291234251567744 -23.039948821099944 4 -1 0
1855 4 -2 -64.47927193570625 20.5578064355417 -22.96994151604764 4 -1 0
105 1 1 -38.506059432007255 15.732301136303029 -22.946484972511943 -6 -6 0
1555 4 -2 -78.34974794950821 27.479519811494093 -24.610745849889238 1 0 1
71 1 1 -77.18887362370837 25.605178343062853 -23.677957744691636 1 1 0
2729 4 -2 -66.82008317419813 23.170967435214585 -22.15793365965613 4 -1 0
201 1 1 -44.94482246557436 25.22718574512956 -27.62620078132606 0 3 0
1641 4 -2 -44.849963541080385 23.19528238787754 -26.41556645478931 -1 3 0
2262 4 -2 -32.70792798836395 22.30240695195208 -28.2310259260051 4 7 0
2632 4 -2 -49.39459497206514 34.09157420223144 -23.80947777808823 4 5 1
1108 2 0 -44.80776583849304 32.62142734265379 -26.78191271009152 3 5 1
139 1 1 -37.945329084687856 30.068603690830685 -23.960980085267103 -2 1 0
2643 4 -2 -37.86860887469558 31.998212301230296 -22.74836223993521 -2 1 0
2746 4 -2 -46.85180288730085 46.85032557087706 -27.88636331479602 0 0 1
2071 4 -2 -1.2461966765441872 -30.02833676090365 -20.38780307547124 -3 -1 1
1321 3 4 -2.220708833721389 -28.165498294488636 -20.572806979383508 -3 -1 1
1916 4 -2 -2.712968939177834 -26.91018682273379 -18.94951074565217 -3 -1 1
1716 4 -2 -9.003256400318058 -15.583111437860175 -21.05765912543698 1 0 0
97 1 1 -7.457575109583942 -17.4173379840749 -20.902212287445973 1 0 0
572 1 1 -6.1078722787797375 -13.534253895234109 -20.349746475792386 1 0 0
384 1 1 -8.6465141448505 -6.046148614001975 -15.204375268858067 -7 -8 -1
2044 4 -2 -8.449602955434486 -3.8169397216073264 -15.72349078727263 -7 -8 -1
854 2 0 -55.91363177111488 13.485920117700495 -17.578557594978953 1 1 1
2374 4 -2 -38.73767283201668 14.488514006299006 -21.024381723706917 -6 -5 0
663 1 1 -75.02374103117651 23.649508321322514 -15.064732186215165 3 -1 -2
328 1 1 -43.247614723050035 35.85913302427217 -15.09279753147338 1 -1 -1
1829 4 -2 -43.59021023487369 38.02782396372608 -13.941655912378815 1 -1 -1
1028 2 0 -51.11375702162984 49.458262219598566 -20.03885744020102 -1 -2 -1
884 2 0 -54.31375822124063 51.23989832497864 -20.54030343812006 -2 -3 2
1536 4 -2 -5.052607202179068 -33.69643797552721 -6.1574629798956835 1 -3 0
283 1 1 5.134377251244686 -29.470833547834953 -8.347802672854622 1 -3 0
824 2 0 -16.459114840690674 -24.288071385748996 -6.6437427327154435 -3 0 -1
2554 4 -2 6.452069300368301 -28.306783849260075 -9.77654555797971 -6 -4 3
2969 4 -2 -4.551450190941232 -18.594011145970395 -10.508089615947963 1 1 -1
256 1 1 -5.08452579385586 -16.458580270350204 -11.356996708440208 4 4 0
559 1 1 -3.4635430135126413 -16.71190366962963 -9.072409741535793 1 1 -1
2281 4 -2 -4.287834888258402 -14.545377936718992 -10.089039674701157 4 4 0
2506 4 -2 -2.100954490227764 -14.987552614031294 -7.9331803377047425 4 4 0
1011 2 0 -30.12526365993815 -9.996330849521257 -6.638801980944767 -3 -1 -1
2031 4 -2 -4.38666679419093 -12.179215210020402 -7.558974583923669 4 4 0
1281 3 4 -3.120019379089925 -13.336626944160308 -8.779451657137537 4 4 0
2006 4 -2 -1.7502582010801504 -12.08634697730406 -9.812672345337178 4 4 0
1104 2 0 -34.43775949114013 -1.2764268408494601 -10.211993429193683 7 4 0
888 2 0 -55.65273529914084 16.487824758184004 -8.029826292674453 1 2 0
2319 4 -2 -26.99287812301815 20.865075592471285 -6.168779049607523 1 -4 0
2288 4 -2 -75.18182205623779 22.18291375138797 -10.42508699683363 3 -1 -2
1288 3 4 -76.03596258862478 23.242457932711993 -12.044090104934616 3 -1 -2
2513 4 -2 -75.19931465621598 24.8748509397145 -13.084577563717623 3 -1 -2
2204 4 -2 -44.33141979083776 35.1894293294621 -13.079699644699184 1 -1 -1
209 1 1 -45.58448723604651 38.647858266218805 -9.570671232740265 1 -1 -1
2199 4 -2 -46.36098085989792 37.99952721858011 -11.696664885029755 1 0 -1
2454 4 -2 -43.64703398295786 37.47491072727783 -10.383701040261112 1 -1 -1
1454 3 4 -44.521067734053304 37.13907224568926 -12.279816181390537 1 -1 -1
2131 4 -2 -60.57974715909171 57.29093333693466 -6.927923442761659 1 -4 0
1685 4 -2 -57.220605438324974 57.99908775323877 -6.8698164964552255 1 -4 1
982 2 0 -49.385983302842085 52.530595835577074 -7.000840035688958 -2 -2 2
1073 2 0 -32.903088424400366 -30.189086444652286 -0.42565560594036095 1 1 0
855 2 0 -17.25673283072455 -30.918941832588185 -5.266979624726911 -2 -1 -1
1411 3 4 -4.681256963637907 -35.77134205019641 -5.997169476720955 1 -3 0
2192 4 -2 6.477469958785228 -34.70084615830815 0.4145446779868227 4 2 0
691 1 1 6.769535444301091 -32.2793019121264 0.25697591505899026 4 2 0
2683 4 -2 -16.52997517598142 -26.74867615755606 -3.4966453233683814 2 -2 0
857 2 0 -23.883996108148185 -8.60867358114762 -4.0647099371126565 1 1 0
966 2 0 -16.41079337054178 11.654808543375935 0.22620289414696637 3 4 -1
564 1 1 -28.68668738080714 20.311690338365274 -4.70334548758795 1 -4 0
899 2 0 -58.362738137063246 26.464136160656366 -0.7699747955870606 -2 2 0
746 1 1 -40.338519722520665 28.678950766614292 -5.793974328886496 1 0 -2
1471 3 4 -38.525083694676 26.535540819902245 -4.15626477641615 1 0 -2
2096 4 -2 -38.40551609241484 24.502120365206373 -4.72661282372166 1 0 -2
2191 4 -2 -40.444032738371476 27.32526804955898 -3.7972645486925267 1 0 -2
2471 4 -2 -38.05494078554063 27.855392742949277 -5.723056499531059 1 0 -2
1596 4 -2 -37.092914464752255 26.359299950334467 -2.6103337816416814 1 0 -2
311 1 1 -36.66495892279594 24.011805817513988 -3.1360901484113195 1 0 -2
259 1 1 -46.69434513178293 42.05550969431897 -1.5061118439890675 5 2 -1
2039 4 -2 -48.17290509184262 42.14886220017935 0.4720040526627968 5 2 -1
2289 4 -2 -45.1512472029805 42.986862330859054 0.21611921966664036 5 2 -1
2306 4 -2 -63.88697858814879 46.757561829007244 -2.11891405439874 0 -4 -2
612 1 1 -65.61858764154319 46.821042883833115 -0.40406973320020567 0 -4 -2
1651 4 -2 -65.46949420348027 48.77970242384653 0.858675831779318 0 -4 -2
582 1 1 -63.918431354680195 48.876451509442234 -0.9720651972561823 0 -4 -2
2014 4 -2 -47.35341374445299 44.4783380006145 -1.4165094875454227 5 2 -1
1289 3 4 -47.0229040255336 43.91044703032955 0.5845632679635102 5 2 -1
1781 4 -2 -59.04415437896681 58.0204833720324 -3.9356334153116816 1 -4 0
787 2 0 -50.21089780709696 56.60797753036245 -5.961515353395535 -3 -1 0
495 1 1 4.569590192741799 -33.77388022014569 1.6916146834973318 1 3 0
1745 4 -2 4.9780033270856805 -31.4225189424192 1.597651295065622 1 3 0
1472 3 4 7.829988122137216 -34.8469639293628 2.028611931916645 4 2 0
2472 4 -2 6.373408233157498 -34.54679520602152 3.542563048436813 4 2 0
192 1 1 6.635936696615325 -32.08761934918321 3.255805901840546 4 2 0
1567 4 -2 8.557611830198645 -32.874766265463656 1.8546469047447127 4 2 0
2432 4 -2 -1.3428507570381925 -18.34868592069816 8.381361186976669 1 5 -1
1523 4 -2 -69.53814749259087 13.886646353223284 2.2841756641729627 0 1 0
217 1 1 -68.82666075114054 13.527894599067665 7.049395908084346 1 1 0
1946 4 -2 -62.33320388265341 14.212618801499474 5.932810477922196 1 2 0
1701 4 -2 -62.459416587929795 11.106083438952865 5.811537122703828 1 1 0
2957 4 -2 -65.34634883325491 11.452126882449619 6.822717931131006 1 1 0
456 1 1 -64.20787168295368 9.229498059508401 6.6660122821610575 1 1 0
1351 3 4 -63.56252489302359 12.61182138687262 6.822002170582864 1 1 0
1827 4 -2 -64.55708292603828 14.392278087931551 7.561547161958707 1 1 0
237 1 1 -60.296209614264754 11.949261454161942 5.8603231632729305 1 1 0
2487 4 -2 -63.32460321226387 8.13546876665702 8.664552735642996 1 1 0
1941 4 -2 -62.59516281297088 12.42483820350639 8.739148887876647 1 2 0
1971 4 -2 -58.81594542316431 14.507490930591416 5.008999683726557 1 2 0
1802 4 -2 -59.85993161217291 13.456670264546332 7.8380245914446744 1 1 0
1148 3 4 -72.35401983592547 16.978992717232714 5.750504779368564 0 1 0
2117 4 -2 -70.97370344187506 16.348401333444905 4.137031840671671 1 1 0
418 1 1 -69.06869365112595 16.629261697914444 5.592321849410911 0 1 0
2647 4 -2 -68.69500776910388 15.839552738693605 7.8933926209784575 0 1 0
2533 4 -2 -70.98954244871494 17.6824458943761 7.26762406892167 0 0 0
643 1 1 -72.4663025553482 19.740738679603574 7.351788905642761 0 1 0
2903 4 -2 -73.15788701112866 18.84384045602951 5.1720944410413825 0 0 0
1408 3 4 -70.76172608862495 15.855589933969497 8.452029065332065 0 0 0
2248 4 -2 -71.42937490670518 15.167699543066504 6.498999638371701 1 1 0
527 1 1 -66.51635053050704 15.513967634816488 6.888911988006801 1 1 0
132 1 1 -63.11610573999645 15.87932903092753 3.85618812986127 1 1 0
2437 4 -2 -64.83168296819562 16.50957731452619 5.463174699768354 1 1 0
2076 4 -2 -61.631821676957756 16.653729401825174 5.6533593251783625 1 1 0
1177 3 4 -63.303054863229775 16.03525001974846 6.877247399496967 1 1 0
522 1 1 -60.778921450548474 18.719105975319664 6.741718551461194 1 2 0
1726 4 -2 -62.653132041768146 17.658077705418762 8.163683253794485 1 1 0
1202 3 4 -60.3097187855402 15.082971418525183 6.438330157774013 1 1 0
2676 4 -2 -61.71954765632275 15.22377827625754 8.109641901300257 1 1 0
2551 4 -2 -59.43694569652001 16.719600938728398 7.589513749968619 1 1 0
212 1 1 -57.88337014927001 15.004275044709317 8.541918912982927 1 1 0
2738 4 -2 -32.86492195789846 16.996626969496305 3.436065860848085 8 5 3
126 1 1 -62.59399963903465 23.279599957633238 3.5834284231993383 -4 1 0
2476 4 -2 -63.14170512067147 25.533335526280325 3.866097192453496 -3 1 0
2541 4 -2 -74.47002129559112 35.23051699135618 4.634289270121171 4 0 0
2316 4 -2 -72.36658202112065 32.87142228613483 6.051374376323221 4 0 0
1286 3 4 -72.46339613078455 34.739641818606344 5.096411010930779 4 0 0
2066 4 -2 -70.25850507490713 34.83493921622937 5.204670494288438 4 0 0
411 1 1 -70.04323501338855 32.52216011887214 5.740205345166707 4 0 0
1881 4 -2 -71.74892672390608 35.43202156770981 3.1476844866725817 4 0 0
2036 4 -2 -71.9352819742904 36.80889200717148 5.50425834424103 4 0 0
1316 3 4 -70.31417289697315 36.70267631457784 4.092780932322919 4 0 0
686 1 1 -68.77851053839989 38.88833693746595 2.0415312486836914 4 0 0
291 1 1 -73.45632404070211 37.31479372044208 3.6408737214632616 4 0 0
2661 4 -2 -70.918767280323 38.464651936000706 3.0542905977027313 4 0 0
1911 4 -2 -68.30045521163325 37.17823063384668 3.5816810564467962 4 0 0
896 2 0 -42.93175370010931 37.36255898465029 7.372144951073126 -3 -1 0
2514 4 -2 -47.32296479990908 45.275373539221334 2.1499266265226082 5 2 -1
2842 4 -2 -45.176276087889015 57.86765679526559 2.1925691383176455 4 1 0
921 2 0 -28.414659224859573 -25.360811967475193 12.233477833693003 -2 -3 0
957 2 0 -3.892781483753609 -8.268287020695986 15.595095987015135 1 1 0
36 1 1 -42.339436827816684 -1.2929599518009383 12.009161773708612 -1 -2 -2
2860 4 -2 -42.505216367069366 -3.6366706503964252 12.709800092385963 0 -2 -1
2701 4 -2 -63.82375589558899 3.4260788852614112 10.263824116095776 1 1 0
2557 4 -2 -64.28232202755062 6.2683273335712 11.3917693972842 1 1 0
49 1 1 -64.10092886990837 5.557115162622324 8.973249082165482 0 0 0
1832 4 -2 -61.83692747183031 5.715872353877408 10.072617029704615 1 1 0
1332 3 4 -62.70218415820541 4.5823673857473395 11.637977949334017 1 1 0
1952 4 -2 -62.28410686184377 6.625649656027669 12.590828913068993 1 1 0
1457 3 4 -64.31707629817852 6.329251146252972 13.610090368143558 1 1 0
2827 4 -2 -61.14035340081463 4.3702457783589 13.100512561040585 1 1 0
1357 3 4 -60.7234438619961 6.223099881936264 14.145201647947056 1 1 0
1582 4 -2 -64.20965780756558 4.226378152154233 13.176508690259697 1 1 0
2681 4 -2 -62.68540368944251 6.226236839800485 15.09885476470833 1 1 0
253 1 1 -59.24820616890915 6.377461746458927 10.688625108182158 0 0 0
1782 4 -2 -58.94251342617779 6.564162504591458 13.112975633727288 1 1 0
162 1 1 -57.30168341693408 6.34414165387286 14.807497417676746 1 1 0
2332 4 -2 -59.66478189407209 6.229081336454172 16.03007472647551 1 1 0
2072 4 -2 -43.44950449844994 3.78356922090407 9.467876750373943 2 5 1
2427 4 -2 -42.116299334143974 1.0449272386334485 11.231677844743936 2 4 1
1322 3 4 -41.87124587369218 3.0981021005916674 10.71423153253896 2 5 1
2547 4 -2 -41.93752935224306 4.306956511288149 12.441316402168983 2 5 1
1917 4 -2 -40.025057906628945 3.3590720727097505 9.721823513844125 2 5 1
2861 4 -2 -69.75369056739942 12.999998596197528 15.225586246618432 1 1 0