Generated by pymatgen.io.lammps.data.LammpsData

3072  atoms

   4  atom types

0.000000 32.733538  xlo xhi
0.000000 28.348074  ylo yhi
0.000000 43.054100  zlo zhi
-16.366771 0.000000 0.000000  xy xz yz

Masses

1  137.3270
2    6.9410
3   28.0855
4   15.9994

Atoms

1     1 0.0000 -12.846017 28.348074  7.818883
2     1 0.0000 -12.846017 28.348074 18.582408
3     1 0.0000 -12.846017 28.348074 29.345933
4     1 0.0000 -12.846017 28.348074 40.109458
5     1 0.0000  -0.570939  7.087019  7.818883
6     1 0.0000  -0.570939  7.087019 18.582408
7     1 0.0000  -0.570939  7.087019 29.345933
8     1 0.0000  -0.570939  7.087019 40.109458
9     1 0.0000  -4.662632 14.174037  7.818883
10    1 0.0000  -4.662632 14.174037 18.582408
11    1 0.0000  -4.662632 14.174037 29.345933
12    1 0.0000  -4.662632 14.174037 40.109458
13    1 0.0000  -8.754324 21.261056  7.818883
14    1 0.0000  -8.754324 21.261056 18.582408
15    1 0.0000  -8.754324 21.261056 29.345933
16    1 0.0000  -8.754324 21.261056 40.109458
17    1 0.0000  -4.662633 28.348074  7.818883
18    1 0.0000  -4.662633 28.348074 18.582408
19    1 0.0000  -4.662633 28.348074 29.345933
20    1 0.0000  -4.662633 28.348074 40.109458
21    1 0.0000   7.612446  7.087019  7.818883
22    1 0.0000   7.612446  7.087019 18.582408
23    1 0.0000   7.612446  7.087019 29.345933
24    1 0.0000   7.612446  7.087019 40.109458
25    1 0.0000   3.520753 14.174037  7.818883
26    1 0.0000   3.520753 14.174037 18.582408
27    1 0.0000   3.520753 14.174037 29.345933
28    1 0.0000   3.520753 14.174037 40.109458
29    1 0.0000  -0.570940 21.261056  7.818883
30    1 0.0000  -0.570940 21.261056 18.582408
31    1 0.0000  -0.570940 21.261056 29.345933
32    1 0.0000  -0.570940 21.261056 40.109458
33    1 0.0000   3.520752 28.348074  7.818883
34    1 0.0000   3.520752 28.348074 18.582408
35    1 0.0000   3.520752 28.348074 29.345933
36    1 0.0000   3.520752 28.348074 40.109458
37    1 0.0000  15.795830  7.087019  7.818883
38    1 0.0000  15.795830  7.087019 18.582408
39    1 0.0000  15.795830  7.087019 29.345933
40    1 0.0000  15.795830  7.087019 40.109458
41    1 0.0000  11.704137 14.174037  7.818883
42    1 0.0000  11.704137 14.174037 18.582408
43    1 0.0000  11.704137 14.174037 29.345933
44    1 0.0000  11.704137 14.174037 40.109458
45    1 0.0000   7.612445 21.261056  7.818883
46    1 0.0000   7.612445 21.261056 18.582408
47    1 0.0000   7.612445 21.261056 29.345933
48    1 0.0000   7.612445 21.261056 40.109458
49    1 0.0000  11.704136 28.348074  7.818883
50    1 0.0000  11.704136 28.348074 18.582408
51    1 0.0000  11.704136 28.348074 29.345933
52    1 0.0000  11.704136 28.348074 40.109458
53    1 0.0000  23.979215  7.087019  7.818883
54    1 0.0000  23.979215  7.087019 18.582408
55    1 0.0000  23.979215  7.087019 29.345933
56    1 0.0000  23.979215  7.087019 40.109458
57    1 0.0000  19.887522 14.174037  7.818883
58    1 0.0000  19.887522 14.174037 18.582408
59    1 0.0000  19.887522 14.174037 29.345933
60    1 0.0000  19.887522 14.174037 40.109458
61    1 0.0000  15.795829 21.261056  7.818883
62    1 0.0000  15.795829 21.261056 18.582408
63    1 0.0000  15.795829 21.261056 29.345933
64    1 0.0000  15.795829 21.261056 40.109458
65    1 0.0000 -11.704140 28.348074  2.437120
66    1 0.0000 -11.704140 28.348074 13.200645
67    1 0.0000 -11.704140 28.348074 23.964170
68    1 0.0000 -11.704140 28.348074 34.727695
69    1 0.0000   0.570938  7.087019  2.437120
70    1 0.0000   0.570938  7.087019 13.200645
71    1 0.0000   0.570938  7.087019 23.964170
72    1 0.0000   0.570938  7.087019 34.727695
73    1 0.0000  -3.520755 14.174037  2.437120
74    1 0.0000  -3.520755 14.174037 13.200645
75    1 0.0000  -3.520755 14.174037 23.964170
76    1 0.0000  -3.520755 14.174037 34.727695
77    1 0.0000  -7.612448 21.261056  2.437120
78    1 0.0000  -7.612448 21.261056 13.200645
79    1 0.0000  -7.612448 21.261056 23.964170
80    1 0.0000  -7.612448 21.261056 34.727695
81    1 0.0000  -3.520756 28.348074  2.437120
82    1 0.0000  -3.520756 28.348074 13.200645
83    1 0.0000  -3.520756 28.348074 23.964170
84    1 0.0000  -3.520756 28.348074 34.727695
85    1 0.0000   8.754322  7.087019  2.437120
86    1 0.0000   8.754322  7.087019 13.200645
87    1 0.0000   8.754322  7.087019 23.964170
88    1 0.0000   8.754322  7.087019 34.727695
89    1 0.0000   4.662630 14.174037  2.437120
90    1 0.0000   4.662630 14.174037 13.200645
91    1 0.0000   4.662630 14.174037 23.964170
92    1 0.0000   4.662630 14.174037 34.727695
93    1 0.0000   0.570937 21.261056  2.437120
94    1 0.0000   0.570937 21.261056 13.200645
95    1 0.0000   0.570937 21.261056 23.964170
96    1 0.0000   0.570937 21.261056 34.727695
97    1 0.0000   4.662629 28.348074  2.437120
98    1 0.0000   4.662629 28.348074 13.200645
99    1 0.0000   4.662629 28.348074 23.964170
100   1 0.0000   4.662629 28.348074 34.727695
101   1 0.0000  16.937707  7.087019  2.437120
102   1 0.0000  16.937707  7.087019 13.200645
103   1 0.0000  16.937707  7.087019 23.964170
104   1 0.0000  16.937707  7.087019 34.727695
105   1 0.0000  12.846014 14.174037  2.437120
106   1 0.0000  12.846014 14.174037 13.200645
107   1 0.0000  12.846014 14.174037 23.964170
108   1 0.0000  12.846014 14.174037 34.727695
109   1 0.0000   8.754321 21.261056  2.437120
110   1 0.0000   8.754321 21.261056 13.200645
111   1 0.0000   8.754321 21.261056 23.964170
112   1 0.0000   8.754321 21.261056 34.727695
113   1 0.0000  12.846013 28.348074  2.437120
114   1 0.0000  12.846013 28.348074 13.200645
115   1 0.0000  12.846013 28.348074 23.964170
116   1 0.0000  12.846013 28.348074 34.727695
117   1 0.0000  25.121091  7.087019  2.437120
118   1 0.0000  25.121091  7.087019 13.200645
119   1 0.0000  25.121091  7.087019 23.964170
120   1 0.0000  25.121091  7.087019 34.727695
121   1 0.0000  21.029399 14.174037  2.437120
122   1 0.0000  21.029399 14.174037 13.200645
123   1 0.0000  21.029399 14.174037 23.964170
124   1 0.0000  21.029399 14.174037 34.727695
125   1 0.0000  16.937706 21.261056  2.437120
126   1 0.0000  16.937706 21.261056 13.200645
127   1 0.0000  16.937706 21.261056 23.964170
128   1 0.0000  16.937706 21.261056 34.727695
129   1 0.0000   1.760377  3.049062  2.437120
130   1 0.0000   1.760377  3.049062 13.200645
131   1 0.0000   1.760377  3.049062 23.964170
132   1 0.0000   1.760377  3.049062 34.727695
133   1 0.0000  -2.331316 10.136081  2.437120
134   1 0.0000  -2.331316 10.136081 13.200645
135   1 0.0000  -2.331316 10.136081 23.964170
136   1 0.0000  -2.331316 10.136081 34.727695
137   1 0.0000  -6.423009 17.223099  2.437120
138   1 0.0000  -6.423009 17.223099 13.200645
139   1 0.0000  -6.423009 17.223099 23.964170
140   1 0.0000  -6.423009 17.223099 34.727695
141   1 0.0000 -10.514701 24.310118  2.437120
142   1 0.0000 -10.514701 24.310118 13.200645
143   1 0.0000 -10.514701 24.310118 23.964170
144   1 0.0000 -10.514701 24.310118 34.727695
145   1 0.0000   9.943761  3.049062  2.437120
146   1 0.0000   9.943761  3.049062 13.200645
147   1 0.0000   9.943761  3.049062 23.964170
148   1 0.0000   9.943761  3.049062 34.727695
149   1 0.0000   5.852068 10.136081  2.437120
150   1 0.0000   5.852068 10.136081 13.200645
151   1 0.0000   5.852068 10.136081 23.964170
152   1 0.0000   5.852068 10.136081 34.727695
153   1 0.0000   1.760376 17.223099  2.437120
154   1 0.0000   1.760376 17.223099 13.200645
155   1 0.0000   1.760376 17.223099 23.964170
156   1 0.0000   1.760376 17.223099 34.727695
157   1 0.0000  -2.331317 24.310118  2.437120
158   1 0.0000  -2.331317 24.310118 13.200645
159   1 0.0000  -2.331317 24.310118 23.964170
160   1 0.0000  -2.331317 24.310118 34.727695
161   1 0.0000  18.127146  3.049062  2.437120
162   1 0.0000  18.127146  3.049062 13.200645
163   1 0.0000  18.127146  3.049062 23.964170
164   1 0.0000  18.127146  3.049062 34.727695
165   1 0.0000  14.035453 10.136081  2.437120
166   1 0.0000  14.035453 10.136081 13.200645
167   1 0.0000  14.035453 10.136081 23.964170
168   1 0.0000  14.035453 10.136081 34.727695
169   1 0.0000   9.943760 17.223099  2.437120
170   1 0.0000   9.943760 17.223099 13.200645
171   1 0.0000   9.943760 17.223099 23.964170
172   1 0.0000   9.943760 17.223099 34.727695
173   1 0.0000   5.852067 24.310118  2.437120
174   1 0.0000   5.852067 24.310118 13.200645
175   1 0.0000   5.852067 24.310118 23.964170
176   1 0.0000   5.852067 24.310118 34.727695
177   1 0.0000  26.310530  3.049062  2.437120
178   1 0.0000  26.310530  3.049062 13.200645
179   1 0.0000  26.310530  3.049062 23.964170
180   1 0.0000  26.310530  3.049062 34.727695
181   1 0.0000  22.218837 10.136081  2.437120
182   1 0.0000  22.218837 10.136081 13.200645
183   1 0.0000  22.218837 10.136081 23.964170
184   1 0.0000  22.218837 10.136081 34.727695
185   1 0.0000  18.127145 17.223099  2.437120
186   1 0.0000  18.127145 17.223099 13.200645
187   1 0.0000  18.127145 17.223099 23.964170
188   1 0.0000  18.127145 17.223099 34.727695
189   1 0.0000  14.035452 24.310118  2.437120
190   1 0.0000  14.035452 24.310118 13.200645
191   1 0.0000  14.035452 24.310118 23.964170
192   1 0.0000  14.035452 24.310118 34.727695
193   1 0.0000  30.402222  4.037956  2.437120
194   1 0.0000  30.402222  4.037956 13.200645
195   1 0.0000  30.402222  4.037956 23.964170
196   1 0.0000  30.402222  4.037956 34.727695
197   1 0.0000  26.310530 11.124975  2.437120
198   1 0.0000  26.310530 11.124975 13.200645
199   1 0.0000  26.310530 11.124975 23.964170
200   1 0.0000  26.310530 11.124975 34.727695
201   1 0.0000  22.218837 18.211994  2.437120
202   1 0.0000  22.218837 18.211994 13.200645
203   1 0.0000  22.218837 18.211994 23.964170
204   1 0.0000  22.218837 18.211994 34.727695
205   1 0.0000  18.127144 25.299012  2.437120
206   1 0.0000  18.127144 25.299012 13.200645
207   1 0.0000  18.127144 25.299012 23.964170
208   1 0.0000  18.127144 25.299012 34.727695
209   1 0.0000   5.852069  4.037956  2.437120
210   1 0.0000   5.852069  4.037956 13.200645
211   1 0.0000   5.852069  4.037956 23.964170
212   1 0.0000   5.852069  4.037956 34.727695
213   1 0.0000   1.760376 11.124975  2.437120
214   1 0.0000   1.760376 11.124975 13.200645
215   1 0.0000   1.760376 11.124975 23.964170
216   1 0.0000   1.760376 11.124975 34.727695
217   1 0.0000  -2.331317 18.211994  2.437120
218   1 0.0000  -2.331317 18.211994 13.200645
219   1 0.0000  -2.331317 18.211994 23.964170
220   1 0.0000  -2.331317 18.211994 34.727695
221   1 0.0000  -6.423009 25.299012  2.437120
222   1 0.0000  -6.423009 25.299012 13.200645
223   1 0.0000  -6.423009 25.299012 23.964170
224   1 0.0000  -6.423009 25.299012 34.727695
225   1 0.0000  14.035453  4.037956  2.437120
226   1 0.0000  14.035453  4.037956 13.200645
227   1 0.0000  14.035453  4.037956 23.964170
228   1 0.0000  14.035453  4.037956 34.727695
229   1 0.0000   9.943761 11.124975  2.437120
230   1 0.0000   9.943761 11.124975 13.200645
231   1 0.0000   9.943761 11.124975 23.964170
232   1 0.0000   9.943761 11.124975 34.727695
233   1 0.0000   5.852068 18.211994  2.437120
234   1 0.0000   5.852068 18.211994 13.200645
235   1 0.0000   5.852068 18.211994 23.964170
236   1 0.0000   5.852068 18.211994 34.727695
237   1 0.0000   1.760375 25.299012  2.437120
238   1 0.0000   1.760375 25.299012 13.200645
239   1 0.0000   1.760375 25.299012 23.964170
240   1 0.0000   1.760375 25.299012 34.727695
241   1 0.0000  22.218838  4.037956  2.437120
242   1 0.0000  22.218838  4.037956 13.200645
243   1 0.0000  22.218838  4.037956 23.964170
244   1 0.0000  22.218838  4.037956 34.727695
245   1 0.0000  18.127145 11.124975  2.437120
246   1 0.0000  18.127145 11.124975 13.200645
247   1 0.0000  18.127145 11.124975 23.964170
248   1 0.0000  18.127145 11.124975 34.727695
249   1 0.0000  14.035452 18.211994  2.437120
250   1 0.0000  14.035452 18.211994 13.200645
251   1 0.0000  14.035452 18.211994 23.964170
252   1 0.0000  14.035452 18.211994 34.727695
253   1 0.0000   9.943760 25.299012  2.437120
254   1 0.0000   9.943760 25.299012 13.200645
255   1 0.0000   9.943760 25.299012 23.964170
256   1 0.0000   9.943760 25.299012 34.727695
257   1 0.0000  30.973161  3.049062  7.818883
258   1 0.0000  30.973161  3.049062 18.582408
259   1 0.0000  30.973161  3.049062 29.345933
260   1 0.0000  30.973161  3.049062 40.109458
261   1 0.0000  26.881468 10.136081  7.818883
262   1 0.0000  26.881468 10.136081 18.582408
263   1 0.0000  26.881468 10.136081 29.345933
264   1 0.0000  26.881468 10.136081 40.109458
265   1 0.0000  22.789775 17.223099  7.818883
266   1 0.0000  22.789775 17.223099 18.582408
267   1 0.0000  22.789775 17.223099 29.345933
268   1 0.0000  22.789775 17.223099 40.109458
269   1 0.0000  18.698083 24.310118  7.818883
270   1 0.0000  18.698083 24.310118 18.582408
271   1 0.0000  18.698083 24.310118 29.345933
272   1 0.0000  18.698083 24.310118 40.109458
273   1 0.0000   6.423007  3.049062  7.818883
274   1 0.0000   6.423007  3.049062 18.582408
275   1 0.0000   6.423007  3.049062 29.345933
276   1 0.0000   6.423007  3.049062 40.109458
277   1 0.0000   2.331315 10.136081  7.818883
278   1 0.0000   2.331315 10.136081 18.582408
279   1 0.0000   2.331315 10.136081 29.345933
280   1 0.0000   2.331315 10.136081 40.109458
281   1 0.0000  -1.760378 17.223099  7.818883
282   1 0.0000  -1.760378 17.223099 18.582408
283   1 0.0000  -1.760378 17.223099 29.345933
284   1 0.0000  -1.760378 17.223099 40.109458
285   1 0.0000  -5.852071 24.310118  7.818883
286   1 0.0000  -5.852071 24.310118 18.582408
287   1 0.0000  -5.852071 24.310118 29.345933
288   1 0.0000  -5.852071 24.310118 40.109458
289   1 0.0000  14.606392  3.049062  7.818883
290   1 0.0000  14.606392  3.049062 18.582408
291   1 0.0000  14.606392  3.049062 29.345933
292   1 0.0000  14.606392  3.049062 40.109458
293   1 0.0000  10.514699 10.136081  7.818883
294   1 0.0000  10.514699 10.136081 18.582408
295   1 0.0000  10.514699 10.136081 29.345933
296   1 0.0000  10.514699 10.136081 40.109458
297   1 0.0000   6.423006 17.223099  7.818883
298   1 0.0000   6.423006 17.223099 18.582408
299   1 0.0000   6.423006 17.223099 29.345933
300   1 0.0000   6.423006 17.223099 40.109458
301   1 0.0000   2.331314 24.310118  7.818883
302   1 0.0000   2.331314 24.310118 18.582408
303   1 0.0000   2.331314 24.310118 29.345933
304   1 0.0000   2.331314 24.310118 40.109458
305   1 0.0000  22.789776  3.049062  7.818883
306   1 0.0000  22.789776  3.049062 18.582408
307   1 0.0000  22.789776  3.049062 29.345933
308   1 0.0000  22.789776  3.049062 40.109458
309   1 0.0000  18.698084 10.136081  7.818883
310   1 0.0000  18.698084 10.136081 18.582408
311   1 0.0000  18.698084 10.136081 29.345933
312   1 0.0000  18.698084 10.136081 40.109458
313   1 0.0000  14.606391 17.223099  7.818883
314   1 0.0000  14.606391 17.223099 18.582408
315   1 0.0000  14.606391 17.223099 29.345933
316   1 0.0000  14.606391 17.223099 40.109458
317   1 0.0000  10.514698 24.310118  7.818883
318   1 0.0000  10.514698 24.310118 18.582408
319   1 0.0000  10.514698 24.310118 29.345933
320   1 0.0000  10.514698 24.310118 40.109458
321   1 0.0000   2.331315  4.037956  7.818883
322   1 0.0000   2.331315  4.037956 18.582408
323   1 0.0000   2.331315  4.037956 29.345933
324   1 0.0000   2.331315  4.037956 40.109458
325   1 0.0000  -1.760378 11.124975  7.818883
326   1 0.0000  -1.760378 11.124975 18.582408
327   1 0.0000  -1.760378 11.124975 29.345933
328   1 0.0000  -1.760378 11.124975 40.109458
329   1 0.0000  -5.852070 18.211994  7.818883
330   1 0.0000  -5.852070 18.211994 18.582408
331   1 0.0000  -5.852070 18.211994 29.345933
332   1 0.0000  -5.852070 18.211994 40.109458
333   1 0.0000  -9.943763 25.299012  7.818883
334   1 0.0000  -9.943763 25.299012 18.582408
335   1 0.0000  -9.943763 25.299012 29.345933
336   1 0.0000  -9.943763 25.299012 40.109458
337   1 0.0000  10.514700  4.037956  7.818883
338   1 0.0000  10.514700  4.037956 18.582408
339   1 0.0000  10.514700  4.037956 29.345933
340   1 0.0000  10.514700  4.037956 40.109458
341   1 0.0000   6.423007 11.124975  7.818883
342   1 0.0000   6.423007 11.124975 18.582408
343   1 0.0000   6.423007 11.124975 29.345933
344   1 0.0000   6.423007 11.124975 40.109458
345   1 0.0000   2.331314 18.211994  7.818883
346   1 0.0000   2.331314 18.211994 18.582408
347   1 0.0000   2.331314 18.211994 29.345933
348   1 0.0000   2.331314 18.211994 40.109458
349   1 0.0000  -1.760379 25.299012  7.818883
350   1 0.0000  -1.760379 25.299012 18.582408
351   1 0.0000  -1.760379 25.299012 29.345933
352   1 0.0000  -1.760379 25.299012 40.109458
353   1 0.0000  18.698084  4.037956  7.818883
354   1 0.0000  18.698084  4.037956 18.582408
355   1 0.0000  18.698084  4.037956 29.345933
356   1 0.0000  18.698084  4.037956 40.109458
357   1 0.0000  14.606391 11.124975  7.818883
358   1 0.0000  14.606391 11.124975 18.582408
359   1 0.0000  14.606391 11.124975 29.345933
360   1 0.0000  14.606391 11.124975 40.109458
361   1 0.0000  10.514699 18.211994  7.818883
362   1 0.0000  10.514699 18.211994 18.582408
363   1 0.0000  10.514699 18.211994 29.345933
364   1 0.0000  10.514699 18.211994 40.109458
365   1 0.0000   6.423006 25.299012  7.818883
366   1 0.0000   6.423006 25.299012 18.582408
367   1 0.0000   6.423006 25.299012 29.345933
368   1 0.0000   6.423006 25.299012 40.109458
369   1 0.0000  26.881469  4.037956  7.818883
370   1 0.0000  26.881469  4.037956 18.582408
371   1 0.0000  26.881469  4.037956 29.345933
372   1 0.0000  26.881469  4.037956 40.109458
373   1 0.0000  22.789776 11.124975  7.818883
374   1 0.0000  22.789776 11.124975 18.582408
375   1 0.0000  22.789776 11.124975 29.345933
376   1 0.0000  22.789776 11.124975 40.109458
377   1 0.0000  18.698083 18.211994  7.818883
378   1 0.0000  18.698083 18.211994 18.582408
379   1 0.0000  18.698083 18.211994 29.345933
380   1 0.0000  18.698083 18.211994 40.109458
381   1 0.0000  14.606390 25.299012  7.818883
382   1 0.0000  14.606390 25.299012 18.582408
383   1 0.0000  14.606390 25.299012 29.345933
384   1 0.0000  14.606390 25.299012 40.109458
385   2 0.0000 -14.523104 28.348074  0.853591
386   2 0.0000 -14.523104 28.348074 11.617116
387   2 0.0000 -14.523104 28.348074 22.380641
388   2 0.0000 -14.523104 28.348074 33.144166
389   2 0.0000  -2.248025  7.087019  0.853591
390   2 0.0000  -2.248025  7.087019 11.617116
391   2 0.0000  -2.248025  7.087019 22.380641
392   2 0.0000  -2.248025  7.087019 33.144166
393   2 0.0000  -6.339718 14.174037  0.853591
394   2 0.0000  -6.339718 14.174037 11.617116
395   2 0.0000  -6.339718 14.174037 22.380641
396   2 0.0000  -6.339718 14.174037 33.144166
397   2 0.0000 -10.431411 21.261056  0.853591
398   2 0.0000 -10.431411 21.261056 11.617116
399   2 0.0000 -10.431411 21.261056 22.380641
400   2 0.0000 -10.431411 21.261056 33.144166
401   2 0.0000  10.027052 -0.000000  0.853591
402   2 0.0000  10.027052 -0.000000 11.617116
403   2 0.0000  10.027052 -0.000000 22.380641
404   2 0.0000  10.027052 -0.000000 33.144166
405   2 0.0000   5.935359  7.087019  0.853591
406   2 0.0000   5.935359  7.087019 11.617116
407   2 0.0000   5.935359  7.087019 22.380641
408   2 0.0000   5.935359  7.087019 33.144166
409   2 0.0000   1.843666 14.174037  0.853591
410   2 0.0000   1.843666 14.174037 11.617116
411   2 0.0000   1.843666 14.174037 22.380641
412   2 0.0000   1.843666 14.174037 33.144166
413   2 0.0000  -2.248026 21.261056  0.853591
414   2 0.0000  -2.248026 21.261056 11.617116
415   2 0.0000  -2.248026 21.261056 22.380641
416   2 0.0000  -2.248026 21.261056 33.144166
417   2 0.0000   1.843665 28.348074  0.853591
418   2 0.0000   1.843665 28.348074 11.617116
419   2 0.0000   1.843665 28.348074 22.380641
420   2 0.0000   1.843665 28.348074 33.144166
421   2 0.0000  14.118744  7.087019  0.853591
422   2 0.0000  14.118744  7.087019 11.617116
423   2 0.0000  14.118744  7.087019 22.380641
424   2 0.0000  14.118744  7.087019 33.144166
425   2 0.0000  10.027051 14.174037  0.853591
426   2 0.0000  10.027051 14.174037 11.617116
427   2 0.0000  10.027051 14.174037 22.380641
428   2 0.0000  10.027051 14.174037 33.144166
429   2 0.0000   5.935358 21.261056  0.853591
430   2 0.0000   5.935358 21.261056 11.617116
431   2 0.0000   5.935358 21.261056 22.380641
432   2 0.0000   5.935358 21.261056 33.144166
433   2 0.0000  10.027050 28.348074  0.853591
434   2 0.0000  10.027050 28.348074 11.617116
435   2 0.0000  10.027050 28.348074 22.380641
436   2 0.0000  10.027050 28.348074 33.144166
437   2 0.0000  22.302128  7.087019  0.853591
438   2 0.0000  22.302128  7.087019 11.617116
439   2 0.0000  22.302128  7.087019 22.380641
440   2 0.0000  22.302128  7.087019 33.144166
441   2 0.0000  18.210435 14.174037  0.853591
442   2 0.0000  18.210435 14.174037 11.617116
443   2 0.0000  18.210435 14.174037 22.380641
444   2 0.0000  18.210435 14.174037 33.144166
445   2 0.0000  14.118743 21.261056  0.853591
446   2 0.0000  14.118743 21.261056 11.617116
447   2 0.0000  14.118743 21.261056 22.380641
448   2 0.0000  14.118743 21.261056 33.144166
449   2 0.0000   5.996874 -0.000000 10.126206
450   2 0.0000   5.996874 -0.000000 20.889731
451   2 0.0000   5.996874 -0.000000 31.653256
452   2 0.0000   5.996874 -0.000000 42.416781
453   2 0.0000   1.905181  7.087019 10.126206
454   2 0.0000   1.905181  7.087019 20.889731
455   2 0.0000   1.905181  7.087019 31.653256
456   2 0.0000   1.905181  7.087019 42.416781
457   2 0.0000  -2.186511 14.174037 10.126206
458   2 0.0000  -2.186511 14.174037 20.889731
459   2 0.0000  -2.186511 14.174037 31.653256
460   2 0.0000  -2.186511 14.174037 42.416781
461   2 0.0000  -6.278204 21.261056 10.126206
462   2 0.0000  -6.278204 21.261056 20.889731
463   2 0.0000  -6.278204 21.261056 31.653256
464   2 0.0000  -6.278204 21.261056 42.416781
465   2 0.0000  -2.186512 28.348074 10.126206
466   2 0.0000  -2.186512 28.348074 20.889731
467   2 0.0000  -2.186512 28.348074 31.653256
468   2 0.0000  -2.186512 28.348074 42.416781
469   2 0.0000  10.088566  7.087019 10.126206
470   2 0.0000  10.088566  7.087019 20.889731
471   2 0.0000  10.088566  7.087019 31.653256
472   2 0.0000  10.088566  7.087019 42.416781
473   2 0.0000   5.996873 14.174037 10.126206
474   2 0.0000   5.996873 14.174037 20.889731
475   2 0.0000   5.996873 14.174037 31.653256
476   2 0.0000   5.996873 14.174037 42.416781
477   2 0.0000   1.905180 21.261056 10.126206
478   2 0.0000   1.905180 21.261056 20.889731
479   2 0.0000   1.905180 21.261056 31.653256
480   2 0.0000   1.905180 21.261056 42.416781
481   2 0.0000   5.996872 28.348074 10.126206
482   2 0.0000   5.996872 28.348074 20.889731
483   2 0.0000   5.996872 28.348074 31.653256
484   2 0.0000   5.996872 28.348074 42.416781
485   2 0.0000  18.271950  7.087019 10.126206
486   2 0.0000  18.271950  7.087019 20.889731
487   2 0.0000  18.271950  7.087019 31.653256
488   2 0.0000  18.271950  7.087019 42.416781
489   2 0.0000  14.180258 14.174037 10.126206
490   2 0.0000  14.180258 14.174037 20.889731
491   2 0.0000  14.180258 14.174037 31.653256
492   2 0.0000  14.180258 14.174037 42.416781
493   2 0.0000  10.088565 21.261056 10.126206
494   2 0.0000  10.088565 21.261056 20.889731
495   2 0.0000  10.088565 21.261056 31.653256
496   2 0.0000  10.088565 21.261056 42.416781
497   2 0.0000  14.180257 28.348074 10.126206
498   2 0.0000  14.180257 28.348074 20.889731
499   2 0.0000  14.180257 28.348074 31.653256
500   2 0.0000  14.180257 28.348074 42.416781
501   2 0.0000  26.455335  7.087019 10.126206
502   2 0.0000  26.455335  7.087019 20.889731
503   2 0.0000  26.455335  7.087019 31.653256
504   2 0.0000  26.455335  7.087019 42.416781
505   2 0.0000  22.363642 14.174037 10.126206
506   2 0.0000  22.363642 14.174037 20.889731
507   2 0.0000  22.363642 14.174037 31.653256
508   2 0.0000  22.363642 14.174037 42.416781
509   2 0.0000  18.271949 21.261056 10.126206
510   2 0.0000  18.271949 21.261056 20.889731
511   2 0.0000  18.271949 21.261056 31.653256
512   2 0.0000  18.271949 21.261056 42.416781
513   2 0.0000  31.811704  1.596663  0.853591
514   2 0.0000  31.811704  1.596663 11.617116
515   2 0.0000  31.811704  1.596663 22.380641
516   2 0.0000  31.811704  1.596663 33.144166
517   2 0.0000  27.720011  8.683681  0.853591
518   2 0.0000  27.720011  8.683681 11.617116
519   2 0.0000  27.720011  8.683681 22.380641
520   2 0.0000  27.720011  8.683681 33.144166
521   2 0.0000  23.628319 15.770700  0.853591
522   2 0.0000  23.628319 15.770700 11.617116
523   2 0.0000  23.628319 15.770700 22.380641
524   2 0.0000  23.628319 15.770700 33.144166
525   2 0.0000  19.536626 22.857718  0.853591
526   2 0.0000  19.536626 22.857718 11.617116
527   2 0.0000  19.536626 22.857718 22.380641
528   2 0.0000  19.536626 22.857718 33.144166
529   2 0.0000   7.261551  1.596663  0.853591
530   2 0.0000   7.261551  1.596663 11.617116
531   2 0.0000   7.261551  1.596663 22.380641
532   2 0.0000   7.261551  1.596663 33.144166
533   2 0.0000   3.169858  8.683681  0.853591
534   2 0.0000   3.169858  8.683681 11.617116
535   2 0.0000   3.169858  8.683681 22.380641
536   2 0.0000   3.169858  8.683681 33.144166
537   2 0.0000  -0.921835 15.770700  0.853591
538   2 0.0000  -0.921835 15.770700 11.617116
539   2 0.0000  -0.921835 15.770700 22.380641
540   2 0.0000  -0.921835 15.770700 33.144166
541   2 0.0000  -5.013528 22.857718  0.853591
542   2 0.0000  -5.013528 22.857718 11.617116
543   2 0.0000  -5.013528 22.857718 22.380641
544   2 0.0000  -5.013528 22.857718 33.144166
545   2 0.0000  15.444935  1.596663  0.853591
546   2 0.0000  15.444935  1.596663 11.617116
547   2 0.0000  15.444935  1.596663 22.380641
548   2 0.0000  15.444935  1.596663 33.144166
549   2 0.0000  11.353242  8.683681  0.853591
550   2 0.0000  11.353242  8.683681 11.617116
551   2 0.0000  11.353242  8.683681 22.380641
552   2 0.0000  11.353242  8.683681 33.144166
553   2 0.0000   7.261550 15.770700  0.853591
554   2 0.0000   7.261550 15.770700 11.617116
555   2 0.0000   7.261550 15.770700 22.380641
556   2 0.0000   7.261550 15.770700 33.144166
557   2 0.0000   3.169857 22.857718  0.853591
558   2 0.0000   3.169857 22.857718 11.617116
559   2 0.0000   3.169857 22.857718 22.380641
560   2 0.0000   3.169857 22.857718 33.144166
561   2 0.0000  23.628320  1.596663  0.853591
562   2 0.0000  23.628320  1.596663 11.617116
563   2 0.0000  23.628320  1.596663 22.380641
564   2 0.0000  23.628320  1.596663 33.144166
565   2 0.0000  19.536627  8.683681  0.853591
566   2 0.0000  19.536627  8.683681 11.617116
567   2 0.0000  19.536627  8.683681 22.380641
568   2 0.0000  19.536627  8.683681 33.144166
569   2 0.0000  15.444934 15.770700  0.853591
570   2 0.0000  15.444934 15.770700 11.617116
571   2 0.0000  15.444934 15.770700 22.380641
572   2 0.0000  15.444934 15.770700 33.144166
573   2 0.0000  11.353241 22.857718  0.853591
574   2 0.0000  11.353241 22.857718 11.617116
575   2 0.0000  11.353241 22.857718 22.380641
576   2 0.0000  11.353241 22.857718 33.144166
577   2 0.0000  29.735101  5.193445 10.126206
578   2 0.0000  29.735101  5.193445 20.889731
579   2 0.0000  29.735101  5.193445 31.653256
580   2 0.0000  29.735101  5.193445 42.416781
581   2 0.0000  25.643408 12.280464 10.126206
582   2 0.0000  25.643408 12.280464 20.889731
583   2 0.0000  25.643408 12.280464 31.653256
584   2 0.0000  25.643408 12.280464 42.416781
585   2 0.0000  21.551715 19.367482 10.126206
586   2 0.0000  21.551715 19.367482 20.889731
587   2 0.0000  21.551715 19.367482 31.653256
588   2 0.0000  21.551715 19.367482 42.416781
589   2 0.0000  17.460022 26.454501 10.126206
590   2 0.0000  17.460022 26.454501 20.889731
591   2 0.0000  17.460022 26.454501 31.653256
592   2 0.0000  17.460022 26.454501 42.416781
593   2 0.0000   5.184947  5.193445 10.126206
594   2 0.0000   5.184947  5.193445 20.889731
595   2 0.0000   5.184947  5.193445 31.653256
596   2 0.0000   5.184947  5.193445 42.416781
597   2 0.0000   1.093254 12.280464 10.126206
598   2 0.0000   1.093254 12.280464 20.889731
599   2 0.0000   1.093254 12.280464 31.653256
600   2 0.0000   1.093254 12.280464 42.416781
601   2 0.0000  -2.998438 19.367482 10.126206
602   2 0.0000  -2.998438 19.367482 20.889731
603   2 0.0000  -2.998438 19.367482 31.653256
604   2 0.0000  -2.998438 19.367482 42.416781
605   2 0.0000  -7.090131 26.454501 10.126206
606   2 0.0000  -7.090131 26.454501 20.889731
607   2 0.0000  -7.090131 26.454501 31.653256
608   2 0.0000  -7.090131 26.454501 42.416781
609   2 0.0000  13.368332  5.193445 10.126206
610   2 0.0000  13.368332  5.193445 20.889731
611   2 0.0000  13.368332  5.193445 31.653256
612   2 0.0000  13.368332  5.193445 42.416781
613   2 0.0000   9.276639 12.280464 10.126206
614   2 0.0000   9.276639 12.280464 20.889731
615   2 0.0000   9.276639 12.280464 31.653256
616   2 0.0000   9.276639 12.280464 42.416781
617   2 0.0000   5.184946 19.367482 10.126206
618   2 0.0000   5.184946 19.367482 20.889731
619   2 0.0000   5.184946 19.367482 31.653256
620   2 0.0000   5.184946 19.367482 42.416781
621   2 0.0000   1.093253 26.454501 10.126206
622   2 0.0000   1.093253 26.454501 20.889731
623   2 0.0000   1.093253 26.454501 31.653256
624   2 0.0000   1.093253 26.454501 42.416781
625   2 0.0000  21.551716  5.193445 10.126206
626   2 0.0000  21.551716  5.193445 20.889731
627   2 0.0000  21.551716  5.193445 31.653256
628   2 0.0000  21.551716  5.193445 42.416781
629   2 0.0000  17.460023 12.280464 10.126206
630   2 0.0000  17.460023 12.280464 20.889731
631   2 0.0000  17.460023 12.280464 31.653256
632   2 0.0000  17.460023 12.280464 42.416781
633   2 0.0000  13.368331 19.367482 10.126206
634   2 0.0000  13.368331 19.367482 20.889731
635   2 0.0000  13.368331 19.367482 31.653256
636   2 0.0000  13.368331 19.367482 42.416781
637   2 0.0000   9.276638 26.454501 10.126206
638   2 0.0000   9.276638 26.454501 20.889731
639   2 0.0000   9.276638 26.454501 31.653256
640   2 0.0000   9.276638 26.454501 42.416781
641   2 0.0000 -10.027054 28.348074  6.235353
642   2 0.0000 -10.027054 28.348074 16.998878
643   2 0.0000 -10.027054 28.348074 27.762403
644   2 0.0000 -10.027054 28.348074 38.525928
645   2 0.0000   2.248024  7.087019  6.235353
646   2 0.0000   2.248024  7.087019 16.998878