LAMMPS data file via write_data, version 29 Aug 2024, timestep = 150034, units = metal

3072 atoms
4 atom types

0 32.733538 xlo xhi
0 28.348074 ylo yhi
0 43.0541 zlo zhi
-16.366771 0 0 xy xz yz

Masses

1 137.327
2 6.941
3 28.0855
4 15.9994

Atoms # charge

1473 3 0 -0.2374192517058362 1.714493526621674 5.335939534655999 0 0 0
133 1 0 -0.6707906488473083 2.3935865864476944 3.156567512514766 0 0 0
2757 4 0 -0.4268937135335102 4.158453500379124 5.192005731649314 1 0 0
965 2 0 -0.2141958948507998 6.489260577887164 6.507845336135618 0 0 0
1601 4 0 1.585225337705125 1.1860917039691605 3.877845162696468 0 0 0
209 1 0 7.26379784894927 2.2849636340631925 2.398906315455177 0 0 0
705 2 0 1.8281891696586325 0.42533944837506404 6.146840964076413 0 0 0
785 2 0 5.439414640362447 3.5493205932787966 3.065523498368366 0 0 0
1345 3 0 3.436221668404421 0.726595454060943 2.3546520213427415 0 0 0
1489 3 0 7.57361011829375 3.726021715763611 4.228564453830677 0 0 0
2113 4 0 3.9530701212893846 4.251335450187486 6.176601383631813 0 0 0
2193 4 0 7.9466666903608365 2.932002277341805 6.449196433733502 0 0 0
2449 4 0 7.0038724559568655 3.2749602842842243 0.18111406000574462 0 0 0
2689 4 0 5.144679889305083 1.939587898205538 1.172838734688805 0 0 0
2817 4 0 5.493232420609298 1.1408682642777341 3.4875307726298317 0 0 0
3009 4 0 3.2307340167867036 3.105112164527554 2.047626427745447 0 0 0
69 1 0 3.640934868446735 2.4845913909975192 4.244407629951547 0 0 0
1429 3 0 5.713911032772546 5.15177513331831 4.944352938920596 0 0 0
2513 4 0 7.175601619133153 0.8614325784987299 0.6270205498231243 0 0 0
1541 4 0 1.7771600228307738 2.8823900951209467 5.661553180392286 0 0 0
2949 4 0 1.47136446319369 3.5976784474112296 3.4577097139768034 0 0 0
917 2 0 1.7307828133932586 5.337293691655318 5.519724141872689 0 0 0
981 2 0 7.437483863261621 6.444260210292133 4.000032321833107 0 0 0
1557 4 0 7.301846280829094 4.755248349937366 2.123145208543268 0 0 0
2261 4 0 4.918140082390696 4.518610867736464 0.9709702136081578 0 0 0
2581 4 0 3.444205927106117 4.828092304813665 3.9994416283699348 0 0 0
2773 4 0 5.240579807647182 5.98185001872203 2.8925738680796624 0 0 0
1985 4 0 5.716911159853386 2.751312907784563 5.275843265105956 0 0 0
1729 4 0 5.8445111829088745 0.3560136835331898 5.812883800326198 0 1 0
1873 4 0 7.618777031938354 1.2984886199922705 4.629102234977422 0 0 0
3025 4 0 6.434735422144656 6.3040802594220064 0.6646136727188149 0 0 0
2085 4 0 7.989120772481075 5.248484843750295 5.965736839794288 0 0 0
2245 4 0 2.6218757069788388 5.415814635855558 1.7648601471874537 0 0 0
645 2 0 3.902898766812559 6.683153789764598 5.524076150551392 0 0 0
1285 3 0 1.299159795376878 2.0392500783656486 1.526179053622186 1 0 0
2897 4 0 6.239454613980961 6.760618637363275 6.457047473384828 0 0 0
1 1 0 3.8699466341430293 1.7034657619753244 6.411046360450589 0 1 0
1041 2 0 7.896984727159481 0.4710398137162609 7.019570754922027 0 0 0
2385 4 0 6.110907121719704 4.438201701125662 7.1255460475931285 0 0 0
609 2 0 15.461791756777632 1.3788748110658862 7.446916987605468 0 0 0
929 2 0 13.272598612647585 2.255402982454437 1.8927319141843273 0 0 0
1617 4 0 9.139868656453709 3.3686246459941143 1.3254258807458537 0 0 0
145 1 0 9.284575720907222 0.9824271526504654 1.6068590037702468 0 0 0
721 2 0 9.41919540126068 2.5027456959917127 3.550123113708991 0 0 0
1361 3 0 11.30779437111824 1.128339311329592 2.7034306570981976 0 0 0
2641 4 0 9.898565987573207 3.8617957125176385 5.379069355284891 0 0 0
2705 4 0 8.401062202292028 6.8078516952435 1.779400088606666 0 0 0
2833 4 0 13.350697039047642 0.8681558866868476 4.010846583710073 0 0 0
2961 4 0 11.124551195932396 2.310596955068925 0.6552147135626974 0 0 0
85 1 0 9.381917731338246 5.0134483584695655 3.3310751532666125 0 0 0
225 1 0 10.326182456769587 5.542371019675926 1.1868046762292057 0 0 0
661 2 0 9.5915643415409 6.809027664981529 5.114075520275426 0 0 0
2789 4 0 11.277994229322529 3.6690790414601144 2.5711788762107655 0 0 0
801 2 0 11.641652414841413 2.3283934216106954 4.689793298314387 0 0 0
1445 3 0 11.525096421537494 5.2970026108110035 4.458212802821131 0 0 0
2209 4 0 13.301925578413757 3.6223510948559983 3.861378256499962 0 0 0
2129 4 0 9.730934646399755 1.4925356529479314 5.926714388028204 0 0 0
2853 4 0 12.326831329593285 4.012868625882703 6.338463456925749 0 0 0
1505 3 0 12.365694678154133 5.866032955045802 2.3678001062075644 0 0 0
161 1 0 15.147674747050042 0.9114182790535074 1.2515974529809664 0 0 0
1633 4 0 12.542836077817785 4.248811396606539 0.6466457605120816 0 0 0
37 1 0 10.551763743578539 5.447590003397599 6.8939430138595 0 0 0
849 2 0 9.609082042959097 0.08936015941621252 4.053036587005659 0 0 0
1765 4 0 13.948194534756928 2.35986193028108 5.810389844753057 0 0 0
1889 4 0 15.754941295564766 0.4991252354926808 5.165787698896573 0 0 0
337 1 0 12.097322067665786 1.562039472594948 7.116410652148133 0 0 0
2434 4 0 -1.5801788789622395 2.773155326211437 13.31464938081244 0 0 0
901 2 0 -3.896317217283 12.372167570716169 6.147545271843041 1 0 0
1349 3 0 -1.650645733715021 13.562130346803224 6.238121720571228 0 0 0
1845 4 0 -5.43536407159061 13.850429264498983 4.776337465315445 1 0 0
3057 4 0 -3.3049504671468943 13.583001266128182 1.4661687722662056 1 0 0
197 1 0 -6.407136778004648 12.653257306369412 6.609856568714085 1 0 0
1605 4 0 -2.9723723380170095 13.785462368636365 4.079574638763467 0 0 0
2309 4 0 -0.5225937900116783 13.707362286147953 2.155632426577061 0 0 0
504 2 0 -5.875977445141955 14.350623612894324 0.980801436925487 1 0 1
456 2 0 4.344444325962235 7.321349015320755 1.2555879438276725 0 0 1
1797 4 0 5.343804709146713 9.427837766636308 0.7447459838706444 0 0 0
2965 4 0 6.412641386296174 8.087581623735185 2.405387359207772 0 0 0
2117 4 0 3.1756297018918866 11.82989025098792 5.921091637190428 0 0 0
2629 4 0 1.0176259717840466 13.302619700182678 5.999026254634118 0 0 0
853 2 0 5.726296981093779 8.30570763256464 4.6890697251201745 0 0 0
1941 4 0 5.307752905839868 10.242748490824743 6.15753638011372 0 0 0
2133 4 0 5.340583714591939 12.369744905064046 4.861505562784102 0 0 0
149 1 0 6.590355918791587 12.270983256311577 2.522354998055382 0 0 0
1365 3 0 7.911676658484651 8.43351086202496 5.827509004187839 0 0 0
933 2 0 5.303637947083969 10.335041563235048 2.895472181140553 0 0 0
725 2 0 4.732659884755273 13.904989001521844 2.983919508974078 0 0 0
1621 4 0 4.4024919146346875 12.218297143566495 1.396442673415502 0 0 0
3029 4 0 6.280294076451752 13.765589589574475 0.5178639173282363 0 0 0
2709 4 0 7.605312601108225 10.078904399845337 1.9611375079952889 0 0 0
2469 4 0 6.474521775685801 11.353917107745328 0.35131793786578086 0 0 0
213 1 0 2.4413960276782456 13.936062435720778 1.9730476097058858 0 0 0
21 1 0 4.536429744583497 8.406934851632762 7.2206483770584775 0 0 0
1749 4 0 7.146933342261209 10.514430964015487 4.394808961091469 0 0 0
2837 4 0 7.6843969303229525 12.575764256318132 6.013775338498834 0 0 0
1877 4 0 2.401831946399626 9.72407861131055 6.758288818871073 0 0 0
1176 3 0 7.556283491352083 8.406117721458166 0.22384882313028984 0 0 1
2645 4 0 5.804355953819504 14.225165970370224 6.256794962848166 0 0 0
997 2 0 10.426858554520516 7.194848936182315 3.0147732333113035 0 0 0
1317 3 0 11.614829610552642 7.654022180854842 0.9453431147675491 0 0 0
1813 4 0 9.527795632282638 8.87240684203294 1.3755713790723503 0 0 0
2597 4 0 8.466715894849694 8.509569320681937 3.556450186034676 0 0 0
1701 4 0 10.620750764942223 8.945954330550542 4.823252222412749 0 0 0
165 1 0 9.609019267341413 10.555701222280137 3.131419544365114 0 0 0
1321 3 0 8.603414349493178 12.197430662161736 1.3432495123188681 0 0 0
1893 4 0 9.225656854280867 10.737670795707906 5.467883900889913 0 0 0
229 1 0 8.599233263862642 12.520276588979483 3.8515955663398938 0 0 0
1289 3 0 -9.141686099714663 15.881905893554752 3.4198557453579013 1 0 0
2185 4 0 -10.524614298100285 19.294901232502404 6.8406374405323875 0 0 0
1609 4 0 -9.517365465766593 21.03372549206543 3.041646280959466 0 0 0
973 2 0 -10.811143538935676 19.725278930374593 4.369884910050583 0 0 0
2633 4 0 -9.001991747264787 20.507446093143283 5.6516215791862505 0 0 0
1036 2 0 -9.52224658637279 17.40259196327808 0.36859610732543063 0 0 1
713 2 0 -8.493157393055057 19.12559257753545 3.9421128410720456 0 0 0
3017 4 0 -9.27992893097564 19.537482290810342 1.223932964436497 0 0 0
1481 3 0 -9.854502093337487 17.572970398769602 5.091583745895119 0 0 0
773 2 0 -8.345718513684638 16.113736697189076 6.903248460441627 1 0 0
2441 4 0 -11.483413218708398 20.061803557590984 1.9617584213417576 0 0 0
1865 4 0 -8.298233124387508 18.500603455816293 6.744998125389771 0 0 0
301 1 0 3.4687771812914314 21.934070557852905 7.315310329421946 0 0 0
1477 3 0 -3.7999893879248026 14.769447495702359 6.158618415114822 0 0 0
1801 4 0 -3.966026612126689 15.901833927569449 0.6344346180250787 0 0 0
1545 4 0 -8.112793959779045 15.588601109196539 1.011098256155002 0 0 0
2313 4 0 -1.1004410128911637 16.78093354502792 0.42513304570861793 0 0 0
73 1 0 -4.6014962646513995 15.027582406504832 2.8654124655544573 0 0 0
969 2 0 -7.66023034624615 14.742403234870674 4.9707879108101185 0 0 0
2181 4 0 -6.168748566252898 15.04017593623901 6.7662754008095005 0 0 0
137 1 0 -8.056018217094579 17.698249215181704 2.1896248444862576 0 0 0
217 1 0 -2.978974653950867 16.314817064426062 4.442140733460863 0 0 0
649 2 0 -1.8210068522483942 16.16780576513396 6.438037551436342 0 0 0
841 2 0 -7.602167101160959 17.109244673178456 4.922014690876861 0 0 0
921 2 0 -0.39420421757887386 17.02670245506828 4.583801048112229 0 0 0
1353 3 0 -5.374653144309624 16.30458677726087 4.869641986803776 0 0 0
1625 4 0 -1.712364861898999 17.73542258552155 2.763820091492405 0 0 0
2121 4 0 -4.641877724373455 18.52069175432977 5.014675231245484 0 0 0
2249 4 0 -6.790758846112664 15.798534369109628 3.0379720179456147 0 0 0
2457 4 0 -2.1750151476874637 18.44026548347316 5.1408529922492265 0 0 0
2697 4 0 -4.146484756746103 17.2383598537939 2.7348160970605213 0 0 0
2825 4 0 -3.9121101807251977 17.113799617230214 6.653722239503934 0 0 0
2953 4 0 -2.2484472934616977 15.514038815781587 2.333570658881647 0 0 0
77 1 0 -7.22659279504064 20.00153076091016 2.2019562137848245 0 0 0
989 2 0 -3.543918471789639 20.476276049238706 5.380610962073218 0 0 0
1437 3 0 -5.3536013028617395 20.51931726134525 3.6231349717284522 0 0 0
93 1 0 -1.4010052001103612 20.118570670902265 1.754709347689135 0 0 0
1309 3 0 -3.2935664783562792 19.40886175807801 3.1836400653951813 0 0 0
2781 4 0 -6.172880947362555 18.20324929274827 3.3537066450081987 0 0 0
2889 4 0 -6.784187954049896 19.448646608406985 5.334102682857856 0 0 0
413 2 0 -3.4417609699715723 20.406215799609345 0.3730736201863417 0 0 0
2201 4 0 -1.0371563401231987 20.201352028079672 5.879949342385777 0 0 0
1673 4 0 -6.176627263759828 17.521495648086756 6.742475961895757 0 0 0
332 1 0 -3.0133241171512686 18.097634990478067 0.698862116447457 0 0 1
1164 3 0 -5.009104064748396 19.097825293702304 1.5361008080064495 0 0 1
393 2 0 -5.9927856320086725 16.862374471617315 1.2264345479882859 0 0 0
329 1 0 -5.2381875620896 19.589395441181985 7.152478119199488 0 0 0
2777 4 0 -0.9164363618063961 14.844949962587313 4.433777225765295 0 0 0
793 2 0 -0.27514017680835706 19.254588715181896 3.8019593490279626 0 0 0
157 1 0 -1.8785072298828878 21.314337769902895 3.888921392944274 0 0 0
130 1 0 -0.40615992055270733 0.9506944342560117 14.018362516024576 0 0 0
805 2 0 6.828022009614631 14.109080826221595 4.23995218832624 0 0 0
2793 4 0 7.939551173487665 14.227109412436299 2.1960422841708955 0 0 0
1493 3 0 3.584815288774939 14.242389113982695 5.214854268678712 0 0 0
2329 4 0 5.946119186739015 17.323240600435508 0.161083416328719 0 0 0
2585 4 0 0.012598230182149823 15.993524070760637 2.422621357007173 0 0 0
789 2 0 1.4156629465908248 14.872384226798893 4.090543851607749 0 0 0
809 2 0 3.237613242699449 18.79260739608257 6.253808978409103 0 0 0
89 1 0 5.426903966659695 17.804758337968178 6.341797519453237 0 0 0
985 2 0 0.4634945143516924 15.720400582759783 6.296233812295633 0 0 0
1497 3 0 0.2779420749015812 18.165739803274036 1.657396653464992 0 0 0
153 1 0 1.6525453148665714 17.37121708946311 3.582188672967109 0 0 0
729 2 0 3.877581289069046 17.924072331455584 4.220282953815904 0 0 0
1369 3 0 2.593173901261309 16.39964340999749 5.534460469367623 0 0 0
1561 4 0 3.553291582917318 15.86117566168093 3.3187385780701866 0 0 0
1817 4 0 4.266151255738283 15.145177787624952 1.0046982379660148 0 0 0
2137 4 0 0.9756557524951609 18.44907318231405 5.834693169181957 0 0 0
2265 4 0 2.2301284503082615 16.2773329512033 1.5204632822422015 0 0 0
2713 4 0 2.699250616922407 18.699411089949788 1.8655568912221012 0 0 0
2969 4 0 4.643968095374706 17.519761741807606 2.067751713790354 0 0 0
669 2 0 2.264089624516443 19.565775536545225 4.163505763376769 0 0 0
2601 4 0 6.165488034910011 15.73181605811371 2.4176066674684464 0 0 0
2845 4 0 1.8297948306637253 20.55412175310488 6.336053340841682 0 0 0
2605 4 0 1.119779200786937 20.35774618060406 2.121052618705588 0 0 0
665 2 0 5.256555975835111 15.89873114056546 4.759212790650485 0 0 0
2797 4 0 4.409022238489023 19.93801362262859 3.087223620907409 0 0 0
1325 3 0 3.0791186299018616 21.082307132442157 0.9810772869530731 0 0 0
1901 4 0 3.804459011770337 21.102705139630178 5.204669153078977 0 0 0
2841 4 0 4.279194595102471 15.849565139519566 7.026470320139525 0 0 0
1305 3 0 0.6830403579976542 14.810171207933125 0.3756799724953634 0 0 0
624 2 0 0.037871639035600396 21.252583054874638 0.2744109819376309 0 0 1
814 2 0 0.668047751123566 25.33437063536507 14.0915427190066 0 0 0
2606 4 0 1.0966789420111225 23.011623780969437 13.492912093224408 0 0 0
1421 3 0 -11.523893029220954 21.33565918349077 6.14889176298449 1 0 0
1921 4 0 3.6708752100027633 0.12954384980848033 4.624760131033356 0 0 0
2433 4 0 -14.877826481842792 27.955272315389163 1.9576491710385393 0 -1 0
913 2 0 -8.848296646957843 28.22567423548758 2.869337219959934 0 -1 0
1549 4 0 -11.7648194234901 21.794984614192888 3.739606942544027 0 0 0
2769 4 0 -10.905233001607495 27.91802587359434 1.658608842959303 0 0 0
2561 4 0 -14.66079365563823 27.112768128867692 4.281778702182232 1 -1 0
1357 3 0 -9.835260232863208 22.55917992205296 4.888886355050457 0 0 0
641 2 0 -10.674943910437142 27.205511558078033 3.9988760247679744 0 0 0
2945 4 0 -12.63443360105489 26.649358247346402 2.8853936713476562 0 -1 0
65 1 0 -10.530107112092592 25.58450427105602 2.1322448707649606 0 0 0
961 2 0 -12.455815605026363 25.99138277882146 5.132306437624479 0 0 0
141 1 0 -10.22237637409741 23.283247685095347 2.568975214898642 0 0 0
845 2 0 -12.084223797847711 23.667001061330758 5.528956630236181 0 0 0
1485 3 0 -10.41677737163677 24.956104164083882 4.394961598023699 0 0 0
1613 4 0 -12.68587998465262 24.998981695999372 1.147359853062609 0 0 0
2189 4 0 -14.468838682355404 26.241014417362088 6.361946924650594 0 0 0
2509 4 0 -12.246408015134906 22.42210491578677 1.5821006550747159 0 0 0
2637 4 0 -10.492076133829013 26.309439844711576 6.353571070319417 0 0 0
3021 4 0 -10.603887488641139 23.961323835524276 0.38392946733125816 0 0 0
2241 4 0 -12.90875236970221 27.39215594202991 0.6030418023935655 0 -1 0
397 2 0 -10.03925993493734 21.6654675618442 0.7049428419590692 0 0 0
2573 4 0 -12.501516723623904 24.247243451343476 3.393187439136314 1 0 0
1553 4 0 -8.824895746850906 26.844241645294474 0.9928750551236178 0 0 0
717 2 0 -8.540242298006259 25.89890623407491 3.2841720953074924 0 0 0
2701 4 0 -8.496863465425974 24.54312744310574 1.406820333069218 0 0 0
1425 3 0 -8.600383022527794 27.331488112497976 5.18277494231845 0 0 0
2397 4 0 -8.378125978448075 25.080735568995298 5.585733736770949 0 0 0
1997 4 0 -10.173473833497853 24.08237577319628 6.852823148641699 0 0 0
449 2 0 -12.508760065142786 27.66006754596116 6.852164247811518 0 -1 0
2125 4 0 -8.232430959817112 23.600500515713875 3.6168121255841372 0 0 0
2505 4 0 -10.262068586570892 18.0595967287388 2.7644803506171884 0 0 0
2401 4 0 -4.713075816831773 28.33466099945104 5.408200183905052 0 -1 0
289 1 0 -2.5521413007200815 28.33148581115017 6.457239884325116 0 -1 0
2589 4 0 -5.73676247216304 21.291179571877553 1.036294791556283 0 0 0
653 2 0 -7.458012849064398 21.450051136961243 4.137049731963393 0 0 0
1565 4 0 -3.6794615296345765 21.47657318510275 2.296783010757418 0 0 0
2829 4 0 -7.905651973534486 22.806501171597862 6.2647807841964775 0 0 0
2593 4 0 -3.2465520383920072 28.091947822941172 1.859065221118271 0 -1 0
1809 4 0 -5.235907771601811 28.115865128411848 0.7087827029329672 0 -1 0
2957 4 0 -7.9870932507655885 22.26468847754284 1.7823774482678845 0 0 0
1569 4 0 -1.350673383815106 26.910167620695677 0.972765245763743 0 0 0
657 2 0 -2.548898656252398 25.8454849339861 2.6991999033306775 0 -1 0
1937 4 0 -4.722569835132296 27.187218715433357 3.424990098463173 0 -1 0
81 1 0 -4.553322116050249 25.9283018170384 1.4113909837717709 0 0 0
977 2 0 -6.800492254526077 27.10927901600235 2.090922118446421 0 -1 0
221 1 0 -6.381128186251459 24.838463481869482 2.4512659524507976 0 0 0
797 2 0 -6.519834411745288 26.048432980930333 4.501268005290231 0 0 0
861 2 0 -3.976315441549545 22.627385720288398 4.299004033358424 0 0 0
925 2 0 -5.912550814523418 22.67478398112201 2.9424549940496276 0 0 0
1501 3 0 -2.3310861582208418 23.506091840478025 2.9780569413164795 0 0 0
1629 4 0 -4.252528924894281 23.671223296613196 1.7207930861014806 0 0 0
1805 4 0 -6.2512983984751145 23.488668312639984 0.4065178467055739 0 0 0
1885 4 0 -6.30526302365893 23.837845856987748 4.891581877363945 0 0 0
1949 4 0 -2.2486920752976594 22.415284014639173 5.990635019499527 0 0 0
2205 4 0 -4.45938577821193 24.858657168292552 3.7374866476450226 0 0 0
2461 4 0 -6.713386008443794 25.80311513305427 0.1925393468309015 0 0 0
2525 4 0 -2.0392960186833307 22.378405555640082 0.9129131408497366 0 0 0
2653 4 0 -2.5591874185158177 24.632681982716353 5.177031949127973 0 0 0
2717 4 0 -2.470511867840614 24.789454529706582 0.5750823971166996 0 0 0
1693 4 0 -5.618821183972159 21.748199286873504 5.722127753569691 0 0 0
2909 4 0 -4.480880440967234 23.753842392041722 6.445737643698448 0 0 0
1745 4 0 -2.8107357951359644 26.913660109059833 4.688470211651418 0 0 0
1441 3 0 -0.7030808392825194 25.50849979784699 3.9198163875101373 0 0 0
2785 4 0 -0.41412973219778143 24.56152431708792 1.8483646938352885 0 0 0
865 2 0 -1.2280428968071624 27.847173450725645 3.1306080346317247 0 -1 0
2001 4 0 -4.605019324934296 26.016549650743123 5.816635881838294 0 -1 0
1697 4 0 -0.6775055213861242 26.59841646012758 6.026714343180954 0 -1 0
1681 4 0 -6.643254575002138 27.43374234652602 6.540666104583603 0 -1 0
2141 4 0 -0.8548025245280214 24.313142587885086 6.818150084250086 0 0 0
733 2 0 -0.6776951282227398 23.24207558245616 4.561095971211882 0 0 0
2973 4 0 -0.3699800076064708 22.18012854902894 2.397786794667262 0 0 0
17 1 0 -6.499335370871215 25.01510016637836 6.9100718358098465 0 0 0
1373 3 0 0.7130175703051427 21.34256391176779 4.315719959176195 0 0 0
993 2 0 0.5521285475081587 26.706469453076878 2.335947753274149 0 0 0
2013 4 0 0.1657563580892892 22.169830894008417 6.480229291328335 0 0 0
941 2 0 2.795139450021308 21.748289752478673 3.110021334925702 0 0 0
237 1 0 1.3290278797704231 23.68012894761078 3.2608732154166065 0 0 0
813 2 0 2.217890055677928 22.846668997571033 5.274820961498563 0 0 0
2541 4 0 1.5336496107515254 23.006513682676395 1.0134457347181143 0 0 0
33 1 0 0.8854890850828186 24.80070527980786 5.3849479229419766 0 0 0
1188 3 0 0.49645429156966703 25.880727375824762 0.12013527054457465 0 -1 1
2718 4 0 0.4228663417194932 26.631012674594025 10.037133967399525 0 0 0
1521 3 0 -2.0087897993555646 5.105897406542384 7.659582534490281 1 0 0
2053 4 0 -0.7797530003500768 6.617142361488944 10.671710098415517 1 0 0
769 2 0 -1.3147965559808594 4.178080301005007 9.716514281591342 1 0 0
2369 4 0 -1.282032577986564 4.663178020170886 12.016503635928428 1 0 0
1286 3 0 -2.6569263346373515 6.718191137295018 12.288456149519385 1 0 0
117 1 0 -2.9708052956906816 6.319330481316249 9.850887313688848 1 0 0
1217 3 0 0.01695895105297118 2.639060864625775 11.735134132353602 0 0 0
1798 4 0 -0.49092424506796317 6.84519458480781 13.083087777591507 0 0 0
1665 4 0 0.0850979663645695 0.9622118111090118 7.6258901381773825 0 0 0
2177 4 0 0.2580374601831137 5.6788559728415695 8.605754889244634 0 0 0
2625 4 0 0.17475523615211094 3.56965149169802 7.417148369537028 0 0 0
321 1 0 2.198841994728256 4.644726344071551 7.692093703474588 0 0 0
2498 4 0 1.0275778526453136 4.9489062118511145 12.940286957862734 0 0 0
1857 4 0 2.2440500217188535 2.1105876070534095 7.898004568934937 0 0 0
2881 4 0 0.7624208054043214 4.721960126315027 10.717056892787015 0 0 0
273 1 0 6.022607525907775 2.002858156681682 7.540140891429342 0 0 0
530 2 0 4.2224843813895045 1.0444113045447274 8.77520822709362 0 0 0
593 2 0 6.4767792199177645 3.670621047661266 9.364671349357998 0 0 0
1025 2 0 0.41152205226056243 2.558799709606239 9.438504860723606 0 0 0
1090 2 0 4.306712789881111 6.007325882670086 7.86268577579509 0 0 0
1153 3 0 4.287720254564331 3.3991880921345596 8.24368653472037 0 0 0
1794 4 0 2.2715216828361746 1.3770772192196437 10.208890017747667 0 0 0
2242 4 0 1.2350324225156029 0.6749612894014302 12.28752010855222 0 0 0
2306 4 0 4.631199021052438 5.132271056841121 10.001027057578286 0 0 0
2450 4 0 4.4065066764821825 2.784731460596674 10.772468012127426 0 0 0
2578 4 0 4.206856385733364 0.2653608870675216 10.995409658166496 0 0 0
2946 4 0 2.340585876775267 2.935028934907945 12.007983134386372 0 0 0
3010 4 0 2.5492260831189286 3.705014046967543 9.735365822495366 0 0 0
1298 3 0 6.242289735527308 1.3066253251402427 9.926731308550087 0 1 0
3026 4 0 6.692354427655055 6.082161109416773 8.64335880005932 0 0 0
66 1 0 3.599117065237412 1.0716450257890027 13.023959668718614 0 1 0
1558 4 0 6.126887958845591 4.0695007800094105 11.608650632959819 0 0 0
210 1 0 2.9193953575760196 5.095679960005347 11.72445139195964 0 0 0
914 2 0 5.911363164794385 1.674003930417384 12.266506725560143 0 0 0
786 2 0 4.829134043240127 5.616804436131641 12.777807572434048 0 0 0
1490 3 0 6.962218573739317 5.855207720985121 13.46139299475856 0 0 0
1874 4 0 4.408984771440703 3.36206714262859 13.041529454643188 0 0 0
86 1 0 6.252230660533476 6.433346275410897 11.027890719974469 0 0 0
2642 4 0 6.945324888537619 3.208537110118992 13.797524473655828 0 0 0
962 2 0 0.9042861692173909 2.86067684475185 13.932608618977918 0 1 0
850 2 0 7.594851283911117 0.17224926920573475 11.609583360496284 0 0 0
1618 4 0 7.852035856170116 2.5858718618030596 11.029524058112914 0 0 0
2706 4 0 8.050848617214383 5.121462800002049 10.501282049853499 0 0 0
1733 4 0 2.516831389768439 6.259782470028124 9.640847609090759 0 0 0
18 1 0 7.143052518995336 0.7230612134005718 14.091083477721472 0 1 0
453 2 0 3.074795408895776 7.104894916484812 13.25498623508539 0 0 0
706 2 0 3.002564814424605 5.0646434600850485 14.213828781258936 0 0 0
5 1 0 1.4668077460656144 6.999737691612292 11.620879307350206 0 0 0
621 2 0 1.08499033145647 24.280729818620557 9.56800082995316 0 0 0
2514 4 0 8.143708980183261 2.011096490036729 8.789795776097945 0 0 0
1574 4 0 9.957160418763294 5.725130056835093 9.23766009322266 0 0 0
2130 4 0 8.609488467558704 4.287941522353102 12.594325689528693 0 0 0
1233 3 0 8.40120152101186 4.421040736316066 8.161862764239816 0 0 0
1106 2 0 11.716492367165381 1.9910839552520312 9.456833493381556 0 0 0
2466 4 0 13.572358690911848 0.5292575138780791 8.79146805932049 0 0 0
2258 4 0 10.086896777222197 0.640195878806054 8.257599263449817 0 0 0
2322 4 0 9.56724208968817 1.0906143360037939 10.5684798931249 0 0 0
722 2 0 8.992859236926318 1.7703610961195297 12.910219190162175 0 0 0
422 2 0 10.221779966173587 3.0137516216403664 7.680934079925916 0 0 0
802 2 0 9.755439836581038 3.4961799236492554 10.115041742594494 0 0 0
2534 4 0 8.694586943228067 6.956144565705456 7.486220934506313 0 0 0
1397 3 0 -5.300201462918883 10.061329979760298 10.50849370128161 1 0 0
325 1 0 -0.4077851155976706 11.410667560163379 7.6651553442920495 0 0 0
2997 4 0 -4.734967846157244 10.880715084476316 8.17818154004819 1 0 0
2869 4 0 -2.407708742841171 9.975216876292022 7.754364753587062 1 0 0
693 2 0 -3.8741262015537177 8.488954795715708 9.04345369260579 1 0 0
709 2 0 -4.699109460477438 13.475984882164493 8.202356057130507 0 0 0
753 2 0 -1.4231174646899842 7.573959674113685 8.533011669173558 1 0 0
518 2 0 -3.712817641309554 9.901098938705438 12.280361865944856 1 0 0
1861 4 0 -2.5458478653474264 12.372042960413461 8.065969709446394 0 0 0
1925 4 0 -0.8905014849428728 9.871515149506882 9.473171986686367 0 0 0
261 1 0 -3.0809103121303902 10.797353393105766 9.903485944975706 1 0 0
1029 2 0 -0.11982080562673063 8.901960639714032 11.596830380490072 0 0 0
1221 3 0 -1.6414736518307662 10.89675135501885 11.767193810721665 0 0 0
1669 4 0 -2.335758545133041 8.663949157154125 10.897965823111651 0 0 0
2246 4 0 -1.8686070104211363 8.857822832788477 13.304407677251463 0 0 0
2502 4 0 -3.1937340468922244 11.898295977290468 13.459957912063953 0 0 0
2885 4 0 -3.2052250586237427 13.48689143158482 10.069972892956121 0 0 0
3014 4 0 -1.8075701051040256 13.32784505230439 12.083759925178969 0 0 0
198 1 0 -5.129081171366553 13.38143531460692 14.097833656220583 1 0 0
2998 4 0 -4.370344193085874 12.03533415399263 11.43123913286615 1 0 0
1077 2 0 -6.447540950012964 13.274806863527624 12.122324067089973 1 0 0
1846 4 0 -4.174472126661429 7.819738911042704 13.809043996872434 1 0 0
1205 3 0 -5.995491818981943 12.218765280678527 9.799043657164086 1 0 0
1737 4 0 -0.16852336803374338 13.887514240559975 8.09045194598157 0 0 0
1094 2 0 -1.1412481349933805 12.24616709581196 9.914722113171587 0 0 0
438 2 0 -5.610059481998382 11.238687395389835 13.263044648686485 1 0 0
1157 3 0 -0.05365293462971393 10.548338696282427 13.57350813766516 0 0 0
2373 4 0 -6.961824159422903 14.114634223953477 8.656079420335555 1 0 0
1290 3 0 -8.401925768451303 14.558608749992514 12.839443805188642 1 0 0
2005 4 0 7.473569826292374 10.490236162309351 7.1009486106975945 0 0 0
2821 4 0 2.0159720160645858 7.19227159090636 7.4119336638911735 0 0 0
2565 4 0 0.24180228125917516 8.967290888802037 7.38581981651575 1 0 0
2690 4 0 3.9208608974164765 7.307444401250207 11.192351224767258 0 0 0
837 2 0 0.8417768406387477 7.968448436730931 9.527116166756787 0 0 0
1685 4 0 5.799733526785519 12.063994007609017 7.367352530132895 0 0 0
1989 4 0 0.5781685111536415 10.942544959752675 11.120499903716905 0 0 0
2197 4 0 3.9090724155959826 13.325899041319722 7.511222756059618 0 0 0
406 2 0 5.179711005551488 7.693760941276268 9.411483189283079 0 0 0
469 2 0 7.026911461308796 8.36242548144976 7.9997234726858535 0 0 0
150 1 0 5.987392830931058 9.997279532150586 12.882828408813848 0 0 0
277 1 0 2.2257556936595884 9.232454444821354 11.114272085179483 0 0 0
341 1 0 5.001238249990351 12.325062208219768 9.750236547224443 0 0 0
534 2 0 1.4706732417839883 8.761847423642461 13.298149896797813 0 0 0
597 2 0 1.3939999472891764 10.309990188042706 9.001003345349913 0 0 0
1045 2 0 2.32742997891771 11.126118826473926 12.875120756207911 0 0 0
1237 3 0 4.7526810546371445 12.082494579577123 12.214820599949661 0 0 0
1302 3 0 3.7509113483017638 9.243097103449013 12.982980108195994 0 0 0
1622 4 0 3.5106829224451515 12.789329192736789 14.160670116864447 0 0 0
2069 4 0 3.1048981429612934 8.642983449979747 9.035534035956122 0 0 0
2262 4 0 4.543565603253876 9.860414318812218 10.808981910540464 0 0 0
2310 4 0 0.3879185474739483 12.6672941974591 12.59360065093411 0 0 0
2389 4 0 1.832457118815205 12.364872626544013 8.03362393856719 0 0 0
2454 4 0 2.6484586186213672 13.24259369417126 11.98497252867365 0 0 0
2901 4 0 3.777574802202607 10.972037943039348 8.2942198514148 0 0 0
2966 4 0 6.666017336940808 11.063806032545871 10.871526927895214 0 0 0
410 2 0 0.9280025213342813 13.160770206335435 10.306896066137243 0 0 0
1173 3 0 5.842736561395381 10.062761894010025 8.940173314644246 0 0 0
1814 4 0 6.697639775861147 8.737231125000593 10.965950564878328 0 0 0
2326 4 0 2.7895935537502297 11.491966560146984 10.385826258489612 0 0 0
25 1 0 3.0520991552627628 13.694210062602458 9.60969956782784 0 0 0
613 2 0 7.3987408179408 12.067027923417236 8.990965788866244 0 0 0
934 2 0 5.571983329448394 7.731724098147746 12.916239386295453 0 0 0
1110 2 0 6.837220303865844 13.565315341593488 10.804715845285202 0 0 0
1253 3 0 7.227848628069042 12.054568909287228 12.82251610408371 0 0 0
2710 4 0 5.886544642768646 13.829589203020122 13.255095902954482 0 0 0
2790 4 0 8.294291735684686 7.275503436189769 12.105894956536508 0 0 0
166 1 0 8.341270288805609 9.987986335057926 12.329130557124525 0 0 0
2405 4 0 7.602129134060046 14.041759428892528 7.870422167407549 0 0 0
1318 3 0 8.33185375623325 7.563965547301529 9.772856439841656 0 0 0
550 2 0 8.395578279788552 10.003526428104053 9.53519651136144 0 0 0
2278 4 0 9.384455321010392 11.72966652540421 7.808318398342621 0 0 0
1061 2 0 9.447601180757026 9.23160515600097 7.452241895872517 0 0 0
3046 4 0 8.940308381243362 12.102778981642848 11.177553319985408 0 0 0
238 1 0 0.8106206547821552 24.913139074151328 11.819956226503697 0 0 0
2061 4 0 -11.256610514781753 20.85994739639945 8.67343036436879 1 0 0
2362 4 0 -9.789684878053835 18.906336182497235 10.778785427498724 1 0 0
2442 4 0 -8.284551392294572 19.230360559595322 12.670549172474768 0 0 0
13 1 0 -9.04603832831829 19.809927714411874 8.644414894901663 0 0 0
1550 4 0 -10.420055530776814 20.478806656003545 12.719530977638204 0 0 0
265 1 0 -8.99867983238016 17.40365179267196 8.884533905169125 1 0 0
2570 4 0 -8.25800920092364 16.806993325543033 12.957091722739893 1 0 0
398 2 0 -9.81174638360797 21.30323571192467 10.38051707789319 0 0 0
1881 4 0 -0.8188189560955389 18.193050903737426 7.184231414876971 0 0 0
1741 4 0 -7.274607586487661 20.675369477669733 7.187732279887204 0 0 0
2393 4 0 -2.9473708135814505 19.176590548466315 7.287772036538417 0 0 0
2438 4 0 -3.931341054276305 14.37807770590875 12.290239299598147 0 0 0
2358 4 0 -5.33328796807089 14.43022473628933 10.400652150607591 1 0 0
1306 3 0 -0.5252503312361677 14.959094350186694 14.027637650783554 0 0 0