Generated by pymatgen.io.lammps.data.LammpsData

3584  atoms

   4  atom types

0.000000 33.787692  xlo xhi
0.000000 33.787692  ylo yhi
0.000000 33.787692  zlo zhi

Masses

1   6.9410
2  47.8670
3  65.4090
4  15.9994

Atoms

1     1 0.0000  0.017924  4.205537  4.241386
2     1 0.0000  0.017924  4.205537 12.688309
3     1 0.0000  0.017924  4.205537 21.135232
4     1 0.0000  0.017924  4.205537 29.582155
5     1 0.0000  0.017924 12.652460  4.241386
6     1 0.0000  0.017924 12.652460 12.688309
7     1 0.0000  0.017924 12.652460 21.135232
8     1 0.0000  0.017924 12.652460 29.582155
9     1 0.0000  0.017924 21.099383  4.241386
10    1 0.0000  0.017924 21.099383 12.688309
11    1 0.0000  0.017924 21.099383 21.135232
12    1 0.0000  0.017924 21.099383 29.582155
13    1 0.0000  0.017924 29.546306  4.241386
14    1 0.0000  0.017924 29.546306 12.688309
15    1 0.0000  0.017924 29.546306 21.135232
16    1 0.0000  0.017924 29.546306 29.582155
17    1 0.0000  8.464847  4.205537  4.241386
18    1 0.0000  8.464847  4.205537 12.688309
19    1 0.0000  8.464847  4.205537 21.135232
20    1 0.0000  8.464847  4.205537 29.582155
21    1 0.0000  8.464847 12.652460  4.241386
22    1 0.0000  8.464847 12.652460 12.688309
23    1 0.0000  8.464847 12.652460 21.135232
24    1 0.0000  8.464847 12.652460 29.582155
25    1 0.0000  8.464847 21.099383  4.241386
26    1 0.0000  8.464847 21.099383 12.688309
27    1 0.0000  8.464847 21.099383 21.135232
28    1 0.0000  8.464847 21.099383 29.582155
29    1 0.0000  8.464847 29.546306  4.241386
30    1 0.0000  8.464847 29.546306 12.688309
31    1 0.0000  8.464847 29.546306 21.135232
32    1 0.0000  8.464847 29.546306 29.582155
33    1 0.0000 16.911770  4.205537  4.241386
34    1 0.0000 16.911770  4.205537 12.688309
35    1 0.0000 16.911770  4.205537 21.135232
36    1 0.0000 16.911770  4.205537 29.582155
37    1 0.0000 16.911770 12.652460  4.241386
38    1 0.0000 16.911770 12.652460 12.688309
39    1 0.0000 16.911770 12.652460 21.135232
40    1 0.0000 16.911770 12.652460 29.582155
41    1 0.0000 16.911770 21.099383  4.241386
42    1 0.0000 16.911770 21.099383 12.688309
43    1 0.0000 16.911770 21.099383 21.135232
44    1 0.0000 16.911770 21.099383 29.582155
45    1 0.0000 16.911770 29.546306  4.241386
46    1 0.0000 16.911770 29.546306 12.688309
47    1 0.0000 16.911770 29.546306 21.135232
48    1 0.0000 16.911770 29.546306 29.582155
49    1 0.0000 25.358693  4.205537  4.241386
50    1 0.0000 25.358693  4.205537 12.688309
51    1 0.0000 25.358693  4.205537 21.135232
52    1 0.0000 25.358693  4.205537 29.582155
53    1 0.0000 25.358693 12.652460  4.241386
54    1 0.0000 25.358693 12.652460 12.688309
55    1 0.0000 25.358693 12.652460 21.135232
56    1 0.0000 25.358693 12.652460 29.582155
57    1 0.0000 25.358693 21.099383  4.241386
58    1 0.0000 25.358693 21.099383 12.688309
59    1 0.0000 25.358693 21.099383 21.135232
60    1 0.0000 25.358693 21.099383 29.582155
61    1 0.0000 25.358693 29.546306  4.241386
62    1 0.0000 25.358693 29.546306 12.688309
63    1 0.0000 25.358693 29.546306 21.135232
64    1 0.0000 25.358693 29.546306 29.582155
65    1 0.0000  1.054379  7.392544  3.169083
66    1 0.0000  1.054379  7.392544 11.616006
67    1 0.0000  1.054379  7.392544 20.062929
68    1 0.0000  1.054379  7.392544 28.509852
69    1 0.0000  1.054379 15.839467  3.169083
70    1 0.0000  1.054379 15.839467 11.616006
71    1 0.0000  1.054379 15.839467 20.062929
72    1 0.0000  1.054379 15.839467 28.509852
73    1 0.0000  1.054379 24.286390  3.169083
74    1 0.0000  1.054379 24.286390 11.616006
75    1 0.0000  1.054379 24.286390 20.062929
76    1 0.0000  1.054379 24.286390 28.509852
77    1 0.0000  1.054379 32.733313  3.169083
78    1 0.0000  1.054379 32.733313 11.616006
79    1 0.0000  1.054379 32.733313 20.062929
80    1 0.0000  1.054379 32.733313 28.509852
81    1 0.0000  9.501302  7.392544  3.169083
82    1 0.0000  9.501302  7.392544 11.616006
83    1 0.0000  9.501302  7.392544 20.062929
84    1 0.0000  9.501302  7.392544 28.509852
85    1 0.0000  9.501302 15.839467  3.169083
86    1 0.0000  9.501302 15.839467 11.616006
87    1 0.0000  9.501302 15.839467 20.062929
88    1 0.0000  9.501302 15.839467 28.509852
89    1 0.0000  9.501302 24.286390  3.169083
90    1 0.0000  9.501302 24.286390 11.616006
91    1 0.0000  9.501302 24.286390 20.062929
92    1 0.0000  9.501302 24.286390 28.509852
93    1 0.0000  9.501302 32.733313  3.169083
94    1 0.0000  9.501302 32.733313 11.616006
95    1 0.0000  9.501302 32.733313 20.062929
96    1 0.0000  9.501302 32.733313 28.509852
97    1 0.0000 17.948225  7.392544  3.169083
98    1 0.0000 17.948225  7.392544 11.616006
99    1 0.0000 17.948225  7.392544 20.062929
100   1 0.0000 17.948225  7.392544 28.509852
101   1 0.0000 17.948225 15.839467  3.169083
102   1 0.0000 17.948225 15.839467 11.616006
103   1 0.0000 17.948225 15.839467 20.062929
104   1 0.0000 17.948225 15.839467 28.509852
105   1 0.0000 17.948225 24.286390  3.169083
106   1 0.0000 17.948225 24.286390 11.616006
107   1 0.0000 17.948225 24.286390 20.062929
108   1 0.0000 17.948225 24.286390 28.509852
109   1 0.0000 17.948225 32.733313  3.169083
110   1 0.0000 17.948225 32.733313 11.616006
111   1 0.0000 17.948225 32.733313 20.062929
112   1 0.0000 17.948225 32.733313 28.509852
113   1 0.0000 26.395148  7.392544  3.169083
114   1 0.0000 26.395148  7.392544 11.616006
115   1 0.0000 26.395148  7.392544 20.062929
116   1 0.0000 26.395148  7.392544 28.509852
117   1 0.0000 26.395148 15.839467  3.169083
118   1 0.0000 26.395148 15.839467 11.616006
119   1 0.0000 26.395148 15.839467 20.062929
120   1 0.0000 26.395148 15.839467 28.509852
121   1 0.0000 26.395148 24.286390  3.169083
122   1 0.0000 26.395148 24.286390 11.616006
123   1 0.0000 26.395148 24.286390 20.062929
124   1 0.0000 26.395148 24.286390 28.509852
125   1 0.0000 26.395148 32.733313  3.169083
126   1 0.0000 26.395148 32.733313 11.616006
127   1 0.0000 26.395148 32.733313 20.062929
128   1 0.0000 26.395148 32.733313 28.509852
129   1 0.0000  3.169083  1.054379  7.392544
130   1 0.0000  3.169083  1.054379 15.839467
131   1 0.0000  3.169083  1.054379 24.286390
132   1 0.0000  3.169083  1.054379 32.733313
133   1 0.0000  3.169083  9.501302  7.392544
134   1 0.0000  3.169083  9.501302 15.839467
135   1 0.0000  3.169083  9.501302 24.286390
136   1 0.0000  3.169083  9.501302 32.733313
137   1 0.0000  3.169083 17.948225  7.392544
138   1 0.0000  3.169083 17.948225 15.839467
139   1 0.0000  3.169083 17.948225 24.286390
140   1 0.0000  3.169083 17.948225 32.733313
141   1 0.0000  3.169083 26.395148  7.392544
142   1 0.0000  3.169083 26.395148 15.839467
143   1 0.0000  3.169083 26.395148 24.286390
144   1 0.0000  3.169083 26.395148 32.733313
145   1 0.0000 11.616006  1.054379  7.392544
146   1 0.0000 11.616006  1.054379 15.839467
147   1 0.0000 11.616006  1.054379 24.286390
148   1 0.0000 11.616006  1.054379 32.733313
149   1 0.0000 11.616006  9.501302  7.392544
150   1 0.0000 11.616006  9.501302 15.839467
151   1 0.0000 11.616006  9.501302 24.286390
152   1 0.0000 11.616006  9.501302 32.733313
153   1 0.0000 11.616006 17.948225  7.392544
154   1 0.0000 11.616006 17.948225 15.839467
155   1 0.0000 11.616006 17.948225 24.286390
156   1 0.0000 11.616006 17.948225 32.733313
157   1 0.0000 11.616006 26.395148  7.392544
158   1 0.0000 11.616006 26.395148 15.839467
159   1 0.0000 11.616006 26.395148 24.286390
160   1 0.0000 11.616006 26.395148 32.733313
161   1 0.0000 20.062929  1.054379  7.392544
162   1 0.0000 20.062929  1.054379 15.839467
163   1 0.0000 20.062929  1.054379 24.286390
164   1 0.0000 20.062929  1.054379 32.733313
165   1 0.0000 20.062929  9.501302  7.392544
166   1 0.0000 20.062929  9.501302 15.839467
167   1 0.0000 20.062929  9.501302 24.286390
168   1 0.0000 20.062929  9.501302 32.733313
169   1 0.0000 20.062929 17.948225  7.392544
170   1 0.0000 20.062929 17.948225 15.839467
171   1 0.0000 20.062929 17.948225 24.286390
172   1 0.0000 20.062929 17.948225 32.733313
173   1 0.0000 20.062929 26.395148  7.392544
174   1 0.0000 20.062929 26.395148 15.839467
175   1 0.0000 20.062929 26.395148 24.286390
176   1 0.0000 20.062929 26.395148 32.733313
177   1 0.0000 28.509852  1.054379  7.392544
178   1 0.0000 28.509852  1.054379 15.839467
179   1 0.0000 28.509852  1.054379 24.286390
180   1 0.0000 28.509852  1.054379 32.733313
181   1 0.0000 28.509852  9.501302  7.392544
182   1 0.0000 28.509852  9.501302 15.839467
183   1 0.0000 28.509852  9.501302 24.286390
184   1 0.0000 28.509852  9.501302 32.733313
185   1 0.0000 28.509852 17.948225  7.392544
186   1 0.0000 28.509852 17.948225 15.839467
187   1 0.0000 28.509852 17.948225 24.286390
188   1 0.0000 28.509852 17.948225 32.733313
189   1 0.0000 28.509852 26.395148  7.392544
190   1 0.0000 28.509852 26.395148 15.839467
191   1 0.0000 28.509852 26.395148 24.286390
192   1 0.0000 28.509852 26.395148 32.733313
193   1 0.0000  4.205537  4.241386  0.017924
194   1 0.0000  4.205537  4.241386  8.464847
195   1 0.0000  4.205537  4.241386 16.911770
196   1 0.0000  4.205537  4.241386 25.358693
197   1 0.0000  4.205537 12.688309  0.017924
198   1 0.0000  4.205537 12.688309  8.464847
199   1 0.0000  4.205537 12.688309 16.911770
200   1 0.0000  4.205537 12.688309 25.358693
201   1 0.0000  4.205537 21.135232  0.017924
202   1 0.0000  4.205537 21.135232  8.464847
203   1 0.0000  4.205537 21.135232 16.911770
204   1 0.0000  4.205537 21.135232 25.358693
205   1 0.0000  4.205537 29.582155  0.017924
206   1 0.0000  4.205537 29.582155  8.464847
207   1 0.0000  4.205537 29.582155 16.911770
208   1 0.0000  4.205537 29.582155 25.358693
209   1 0.0000 12.652460  4.241386  0.017924
210   1 0.0000 12.652460  4.241386  8.464847
211   1 0.0000 12.652460  4.241386 16.911770
212   1 0.0000 12.652460  4.241386 25.358693
213   1 0.0000 12.652460 12.688309  0.017924
214   1 0.0000 12.652460 12.688309  8.464847
215   1 0.0000 12.652460 12.688309 16.911770
216   1 0.0000 12.652460 12.688309 25.358693
217   1 0.0000 12.652460 21.135232  0.017924
218   1 0.0000 12.652460 21.135232  8.464847
219   1 0.0000 12.652460 21.135232 16.911770
220   1 0.0000 12.652460 21.135232 25.358693
221   1 0.0000 12.652460 29.582155  0.017924
222   1 0.0000 12.652460 29.582155  8.464847
223   1 0.0000 12.652460 29.582155 16.911770
224   1 0.0000 12.652460 29.582155 25.358693
225   1 0.0000 21.099383  4.241386  0.017924
226   1 0.0000 21.099383  4.241386  8.464847
227   1 0.0000 21.099383  4.241386 16.911770
228   1 0.0000 21.099383  4.241386 25.358693
229   1 0.0000 21.099383 12.688309  0.017924
230   1 0.0000 21.099383 12.688309  8.464847
231   1 0.0000 21.099383 12.688309 16.911770
232   1 0.0000 21.099383 12.688309 25.358693
233   1 0.0000 21.099383 21.135232  0.017924
234   1 0.0000 21.099383 21.135232  8.464847
235   1 0.0000 21.099383 21.135232 16.911770
236   1 0.0000 21.099383 21.135232 25.358693
237   1 0.0000 21.099383 29.582155  0.017924
238   1 0.0000 21.099383 29.582155  8.464847
239   1 0.0000 21.099383 29.582155 16.911770
240   1 0.0000 21.099383 29.582155 25.358693
241   1 0.0000 29.546306  4.241386  0.017924
242   1 0.0000 29.546306  4.241386  8.464847
243   1 0.0000 29.546306  4.241386 16.911770
244   1 0.0000 29.546306  4.241386 25.358693
245   1 0.0000 29.546306 12.688309  0.017924
246   1 0.0000 29.546306 12.688309  8.464847
247   1 0.0000 29.546306 12.688309 16.911770
248   1 0.0000 29.546306 12.688309 25.358693
249   1 0.0000 29.546306 21.135232  0.017924
250   1 0.0000 29.546306 21.135232  8.464847
251   1 0.0000 29.546306 21.135232 16.911770
252   1 0.0000 29.546306 21.135232 25.358693
253   1 0.0000 29.546306 29.582155  0.017924
254   1 0.0000 29.546306 29.582155  8.464847
255   1 0.0000 29.546306 29.582155 16.911770
256   1 0.0000 29.546306 29.582155 25.358693
257   1 0.0000  4.241386  0.017924  4.205537
258   1 0.0000  4.241386  0.017924 12.652460
259   1 0.0000  4.241386  0.017924 21.099383
260   1 0.0000  4.241386  0.017924 29.546306
261   1 0.0000  4.241386  8.464847  4.205537
262   1 0.0000  4.241386  8.464847 12.652460
263   1 0.0000  4.241386  8.464847 21.099383
264   1 0.0000  4.241386  8.464847 29.546306
265   1 0.0000  4.241386 16.911770  4.205537
266   1 0.0000  4.241386 16.911770 12.652460
267   1 0.0000  4.241386 16.911770 21.099383
268   1 0.0000  4.241386 16.911770 29.546306
269   1 0.0000  4.241386 25.358693  4.205537
270   1 0.0000  4.241386 25.358693 12.652460
271   1 0.0000  4.241386 25.358693 21.099383
272   1 0.0000  4.241386 25.358693 29.546306
273   1 0.0000 12.688309  0.017924  4.205537
274   1 0.0000 12.688309  0.017924 12.652460
275   1 0.0000 12.688309  0.017924 21.099383
276   1 0.0000 12.688309  0.017924 29.546306
277   1 0.0000 12.688309  8.464847  4.205537
278   1 0.0000 12.688309  8.464847 12.652460
279   1 0.0000 12.688309  8.464847 21.099383
280   1 0.0000 12.688309  8.464847 29.546306
281   1 0.0000 12.688309 16.911770  4.205537
282   1 0.0000 12.688309 16.911770 12.652460
283   1 0.0000 12.688309 16.911770 21.099383
284   1 0.0000 12.688309 16.911770 29.546306
285   1 0.0000 12.688309 25.358693  4.205537
286   1 0.0000 12.688309 25.358693 12.652460
287   1 0.0000 12.688309 25.358693 21.099383
288   1 0.0000 12.688309 25.358693 29.546306
289   1 0.0000 21.135232  0.017924  4.205537
290   1 0.0000 21.135232  0.017924 12.652460
291   1 0.0000 21.135232  0.017924 21.099383
292   1 0.0000 21.135232  0.017924 29.546306
293   1 0.0000 21.135232  8.464847  4.205537
294   1 0.0000 21.135232  8.464847 12.652460
295   1 0.0000 21.135232  8.464847 21.099383
296   1 0.0000 21.135232  8.464847 29.546306
297   1 0.0000 21.135232 16.911770  4.205537
298   1 0.0000 21.135232 16.911770 12.652460
299   1 0.0000 21.135232 16.911770 21.099383
300   1 0.0000 21.135232 16.911770 29.546306
301   1 0.0000 21.135232 25.358693  4.205537
302   1 0.0000 21.135232 25.358693 12.652460
303   1 0.0000 21.135232 25.358693 21.099383
304   1 0.0000 21.135232 25.358693 29.546306
305   1 0.0000 29.582155  0.017924  4.205537
306   1 0.0000 29.582155  0.017924 12.652460
307   1 0.0000 29.582155  0.017924 21.099383
308   1 0.0000 29.582155  0.017924 29.546306
309   1 0.0000 29.582155  8.464847  4.205537
310   1 0.0000 29.582155  8.464847 12.652460
311   1 0.0000 29.582155  8.464847 21.099383
312   1 0.0000 29.582155  8.464847 29.546306
313   1 0.0000 29.582155 16.911770  4.205537
314   1 0.0000 29.582155 16.911770 12.652460
315   1 0.0000 29.582155 16.911770 21.099383
316   1 0.0000 29.582155 16.911770 29.546306
317   1 0.0000 29.582155 25.358693  4.205537
318   1 0.0000 29.582155 25.358693 12.652460
319   1 0.0000 29.582155 25.358693 21.099383
320   1 0.0000 29.582155 25.358693 29.546306
321   1 0.0000  5.277840  5.277840  5.277840
322   1 0.0000  5.277840  5.277840 13.724763
323   1 0.0000  5.277840  5.277840 22.171686
324   1 0.0000  5.277840  5.277840 30.618609
325   1 0.0000  5.277840 13.724763  5.277840
326   1 0.0000  5.277840 13.724763 13.724763
327   1 0.0000  5.277840 13.724763 22.171686
328   1 0.0000  5.277840 13.724763 30.618609
329   1 0.0000  5.277840 22.171686  5.277840
330   1 0.0000  5.277840 22.171686 13.724763
331   1 0.0000  5.277840 22.171686 22.171686
332   1 0.0000  5.277840 22.171686 30.618609
333   1 0.0000  5.277840 30.618609  5.277840
334   1 0.0000  5.277840 30.618609 13.724763
335   1 0.0000  5.277840 30.618609 22.171686
336   1 0.0000  5.277840 30.618609 30.618609
337   1 0.0000 13.724763  5.277840  5.277840
338   1 0.0000 13.724763  5.277840 13.724763
339   1 0.0000 13.724763  5.277840 22.171686
340   1 0.0000 13.724763  5.277840 30.618609
341   1 0.0000 13.724763 13.724763  5.277840
342   1 0.0000 13.724763 13.724763 13.724763
343   1 0.0000 13.724763 13.724763 22.171686
344   1 0.0000 13.724763 13.724763 30.618609
345   1 0.0000 13.724763 22.171686  5.277840
346   1 0.0000 13.724763 22.171686 13.724763
347   1 0.0000 13.724763 22.171686 22.171686
348   1 0.0000 13.724763 22.171686 30.618609
349   1 0.0000 13.724763 30.618609  5.277840
350   1 0.0000 13.724763 30.618609 13.724763
351   1 0.0000 13.724763 30.618609 22.171686
352   1 0.0000 13.724763 30.618609 30.618609
353   1 0.0000 22.171686  5.277840  5.277840
354   1 0.0000 22.171686  5.277840 13.724763
355   1 0.0000 22.171686  5.277840 22.171686
356   1 0.0000 22.171686  5.277840 30.618609
357   1 0.0000 22.171686 13.724763  5.277840
358   1 0.0000 22.171686 13.724763 13.724763
359   1 0.0000 22.171686 13.724763 22.171686
360   1 0.0000 22.171686 13.724763 30.618609
361   1 0.0000 22.171686 22.171686  5.277840
362   1 0.0000 22.171686 22.171686 13.724763
363   1 0.0000 22.171686 22.171686 22.171686
364   1 0.0000 22.171686 22.171686 30.618609
365   1 0.0000 22.171686 30.618609  5.277840
366   1 0.0000 22.171686 30.618609 13.724763
367   1 0.0000 22.171686 30.618609 22.171686
368   1 0.0000 22.171686 30.618609 30.618609
369   1 0.0000 30.618609  5.277840  5.277840
370   1 0.0000 30.618609  5.277840 13.724763
371   1 0.0000 30.618609  5.277840 22.171686
372   1 0.0000 30.618609  5.277840 30.618609
373   1 0.0000 30.618609 13.724763  5.277840
374   1 0.0000 30.618609 13.724763 13.724763
375   1 0.0000 30.618609 13.724763 22.171686
376   1 0.0000 30.618609 13.724763 30.618609
377   1 0.0000 30.618609 22.171686  5.277840
378   1 0.0000 30.618609 22.171686 13.724763
379   1 0.0000 30.618609 22.171686 22.171686
380   1 0.0000 30.618609 22.171686 30.618609
381   1 0.0000 30.618609 30.618609  5.277840
382   1 0.0000 30.618609 30.618609 13.724763
383   1 0.0000 30.618609 30.618609 22.171686
384   1 0.0000 30.618609 30.618609 30.618609
385   1 0.0000  7.392544  3.169083  1.054379
386   1 0.0000  7.392544  3.169083  9.501302
387   1 0.0000  7.392544  3.169083 17.948225
388   1 0.0000  7.392544  3.169083 26.395148
389   1 0.0000  7.392544 11.616006  1.054379
390   1 0.0000  7.392544 11.616006  9.501302
391   1 0.0000  7.392544 11.616006 17.948225
392   1 0.0000  7.392544 11.616006 26.395148
393   1 0.0000  7.392544 20.062929  1.054379
394   1 0.0000  7.392544 20.062929  9.501302
395   1 0.0000  7.392544 20.062929 17.948225
396   1 0.0000  7.392544 20.062929 26.395148
397   1 0.0000  7.392544 28.509852  1.054379
398   1 0.0000  7.392544 28.509852  9.501302
399   1 0.0000  7.392544 28.509852 17.948225
400   1 0.0000  7.392544 28.509852 26.395148
401   1 0.0000 15.839467  3.169083  1.054379
402   1 0.0000 15.839467  3.169083  9.501302
403   1 0.0000 15.839467  3.169083 17.948225
404   1 0.0000 15.839467  3.169083 26.395148
405   1 0.0000 15.839467 11.616006  1.054379
406   1 0.0000 15.839467 11.616006  9.501302
407   1 0.0000 15.839467 11.616006 17.948225
408   1 0.0000 15.839467 11.616006 26.395148
409   1 0.0000 15.839467 20.062929  1.054379
410   1 0.0000 15.839467 20.062929  9.501302
411   1 0.0000 15.839467 20.062929 17.948225
412   1 0.0000 15.839467 20.062929 26.395148
413   1 0.0000 15.839467 28.509852  1.054379
414   1 0.0000 15.839467 28.509852  9.501302
415   1 0.0000 15.839467 28.509852 17.948225
416   1 0.0000 15.839467 28.509852 26.395148
417   1 0.0000 24.286390  3.169083  1.054379
418   1 0.0000 24.286390  3.169083  9.501302
419   1 0.0000 24.286390  3.169083 17.948225
420   1 0.0000 24.286390  3.169083 26.395148
421   1 0.0000 24.286390 11.616006  1.054379
422   1 0.0000 24.286390 11.616006  9.501302
423   1 0.0000 24.286390 11.616006 17.948225
424   1 0.0000 24.286390 11.616006 26.395148
425   1 0.0000 24.286390 20.062929  1.054379
426   1 0.0000 24.286390 20.062929  9.501302
427   1 0.0000 24.286390 20.062929 17.948225
428   1 0.0000 24.286390 20.062929 26.395148
429   1 0.0000 24.286390 28.509852  1.054379
430   1 0.0000 24.286390 28.509852  9.501302
431   1 0.0000 24.286390 28.509852 17.948225
432   1 0.0000 24.286390 28.509852 26.395148
433   1 0.0000 32.733313  3.169083  1.054379
434   1 0.0000 32.733313  3.169083  9.501302
435   1 0.0000 32.733313  3.169083 17.948225
436   1 0.0000 32.733313  3.169083 26.395148
437   1 0.0000 32.733313 11.616006  1.054379
438   1 0.0000 32.733313 11.616006  9.501302
439   1 0.0000 32.733313 11.616006 17.948225
440   1 0.0000 32.733313 11.616006 26.395148
441   1 0.0000 32.733313 20.062929  1.054379
442   1 0.0000 32.733313 20.062929  9.501302
443   1 0.0000 32.733313 20.062929 17.948225
444   1 0.0000 32.733313 20.062929 26.395148
445   1 0.0000 32.733313 28.509852  1.054379
446   1 0.0000 32.733313 28.509852  9.501302
447   1 0.0000 32.733313 28.509852 17.948225
448   1 0.0000 32.733313 28.509852 26.395148
449   1 0.0000  8.428999  8.428999  8.428999
450   1 0.0000  8.428999  8.428999 16.875922
451   1 0.0000  8.428999  8.428999 25.322845
452   1 0.0000  8.428999  8.428999 33.769768
453   1 0.0000  8.428999 16.875922  8.428999
454   1 0.0000  8.428999 16.875922 16.875922
455   1 0.0000  8.428999 16.875922 25.322845
456   1 0.0000  8.428999 16.875922 33.769768
457   1 0.0000  8.428999 25.322845  8.428999
458   1 0.0000  8.428999 25.322845 16.875922
459   1 0.0000  8.428999 25.322845 25.322845
460   1 0.0000  8.428999 25.322845 33.769768
461   1 0.0000  8.428999 33.769768  8.428999
462   1 0.0000  8.428999 33.769768 16.875922
463   1 0.0000  8.428999 33.769768 25.322845
464   1 0.0000  8.428999 33.769768 33.769768
465   1 0.0000 16.875922  8.428999  8.428999
466   1 0.0000 16.875922  8.428999 16.875922
467   1 0.0000 16.875922  8.428999 25.322845
468   1 0.0000 16.875922  8.428999 33.769768
469   1 0.0000 16.875922 16.875922  8.428999
470   1 0.0000 16.875922 16.875922 16.875922
471   1 0.0000 16.875922 16.875922 25.322845
472   1 0.0000 16.875922 16.875922 33.769768
473   1 0.0000 16.875922 25.322845  8.428999
474   1 0.0000 16.875922 25.322845 16.875922
475   1 0.0000 16.875922 25.322845 25.322845
476   1 0.0000 16.875922 25.322845 33.769768
477   1 0.0000 16.875922 33.769768  8.428999
478   1 0.0000 16.875922 33.769768 16.875922
479   1 0.0000 16.875922 33.769768 25.322845
480   1 0.0000 16.875922 33.769768 33.769768
481   1 0.0000 25.322845  8.428999  8.428999
482   1 0.0000 25.322845  8.428999 16.875922
483   1 0.0000 25.322845  8.428999 25.322845
484   1 0.0000 25.322845  8.428999 33.769768
485   1 0.0000 25.322845 16.875922  8.428999
486   1 0.0000 25.322845 16.875922 16.875922
487   1 0.0000 25.322845 16.875922 25.322845
488   1 0.0000 25.322845 16.875922 33.769768
489   1 0.0000 25.322845 25.322845  8.428999
490   1 0.0000 25.322845 25.322845 16.875922
491   1 0.0000 25.322845 25.322845 25.322845
492   1 0.0000 25.322845 25.322845 33.769768
493   1 0.0000 25.322845 33.769768  8.428999
494   1 0.0000 25.322845 33.769768 16.875922
495   1 0.0000 25.322845 33.769768 25.322845
496   1 0.0000 25.322845 33.769768 33.769768
497   1 0.0000 33.769768  8.428999  8.428999
498   1 0.0000 33.769768  8.428999 16.875922
499   1 0.0000 33.769768  8.428999 25.322845
500   1 0.0000 33.769768  8.428999 33.769768
501   1 0.0000 33.769768 16.875922  8.428999
502   1 0.0000 33.769768 16.875922 16.875922
503   1 0.0000 33.769768 16.875922 25.322845
504   1 0.0000 33.769768 16.875922 33.769768
505   1 0.0000 33.769768 25.322845  8.428999
506   1 0.0000 33.769768 25.322845 16.875922
507   1 0.0000 33.769768 25.322845 25.322845
508   1 0.0000 33.769768 25.322845 33.769768
509   1 0.0000 33.769768 33.769768  8.428999
510   1 0.0000 33.769768 33.769768 16.875922
511   1 0.0000 33.769768 33.769768 25.322845
512   1 0.0000 33.769768 33.769768 33.769768
513   2 0.0000  1.016950  5.298966  1.139634
514   2 0.0000  1.016950  5.298966  9.586557
515   2 0.0000  1.016950  5.298966 18.033480
516   2 0.0000  1.016950  5.298966 26.480403
517   2 0.0000  1.016950 13.745889  1.139634
518   2 0.0000  1.016950 13.745889  9.586557
519   2 0.0000  1.016950 13.745889 18.033480
520   2 0.0000  1.016950 13.745889 26.480403
521   2 0.0000  1.016950 22.192812  1.139634
522   2 0.0000  1.016950 22.192812  9.586557
523   2 0.0000  1.016950 22.192812 18.033480
524   2 0.0000  1.016950 22.192812 26.480403
525   2 0.0000  1.016950 30.639735  1.139634
526   2 0.0000  1.016950 30.639735  9.586557
527   2 0.0000  1.016950 30.639735 18.033480
528   2 0.0000  1.016950 30.639735 26.480403
529   2 0.0000  9.463873  5.298966  1.139634
530   2 0.0000  9.463873  5.298966  9.586557
531   2 0.0000  9.463873  5.298966 18.033480
532   2 0.0000  9.463873  5.298966 26.480403
533   2 0.0000  9.463873 13.745889  1.139634
534   2 0.0000  9.463873 13.745889  9.586557
535   2 0.0000  9.463873 13.745889 18.033480
536   2 0.0000  9.463873 13.745889 26.480403
537   2 0.0000  9.463873 22.192812  1.139634
538   2 0.0000  9.463873 22.192812  9.586557
539   2 0.0000  9.463873 22.192812 18.033480
540   2 0.0000  9.463873 22.192812 26.480403
541   2 0.0000  9.463873 30.639735  1.139634
542   2 0.0000  9.463873 30.639735  9.586557
543   2 0.0000  9.463873 30.639735 18.033480
544   2 0.0000  9.463873 30.639735 26.480403
545   2 0.0000 17.910796  5.298966  1.139634
546   2 0.0000 17.910796  5.298966  9.586557
547   2 0.0000 17.910796  5.298966 18.033480
548   2 0.0000 17.910796  5.298966 26.480403
549   2 0.0000 17.910796 13.745889  1.139634
550   2 0.0000 17.910796 13.745889  9.586557
551   2 0.0000 17.910796 13.745889 18.033480
552   2 0.0000 17.910796 13.745889 26.480403
553   2 0.0000 17.910796 22.192812  1.139634
554   2 0.0000 17.910796 22.192812  9.586557
555   2 0.0000 17.910796 22.192812 18.033480
556   2 0.0000 17.910796 22.192812 26.480403
557   2 0.0000 17.910796 30.639735  1.139634
558   2 0.0000 17.910796 30.639735  9.586557
559   2 0.0000 17.910796 30.639735 18.033480
560   2 0.0000 17.910796 30.639735 26.480403
561   2 0.0000 26.357719  5.298966  1.139634
562   2 0.0000 26.357719  5.298966  9.586557
563   2 0.0000 26.357719  5.298966 18.033480
564   2 0.0000 26.357719  5.298966 26.480403
565   2 0.0000 26.357719 13.745889  1.139634
566   2 0.0000 26.357719 13.745889  9.586557
567   2 0.0000 26.357719 13.745889 18.033480
568   2 0.0000 26.357719 13.745889 26.480403
569   2 0.0000 26.357719 22.192812  1.139634
570   2 0.0000 26.357719 22.192812  9.586557
571   2 0.0000 26.357719 22.192812 18.033480
572   2 0.0000 26.357719 22.192812 26.480403
573   2 0.0000 26.357719 30.639735  1.139634
574   2 0.0000 26.357719 30.639735  9.586557
575   2 0.0000 26.357719 30.639735 18.033480
576   2 0.0000 26.357719 30.639735 26.480403
577   2 0.0000  1.075504  3.083828  7.429973
578   2 0.0000  1.075504  3.083828 15.876896
579   2 0.0000  1.075504  3.083828 24.323819
580   2 0.0000  1.075504  3.083828 32.770742
581   2 0.0000  1.075504 11.530751  7.429973
582   2 0.0000  1.075504 11.530751 15.876896
583   2 0.0000  1.075504 11.530751 24.323819
584   2 0.0000  1.075504 11.530751 32.770742
585   2 0.0000  1.075504 19.977674  7.429973
586   2 0.0000  1.075504 19.977674 15.876896
587   2 0.0000  1.075504 19.977674 24.323819
588   2 0.0000  1.075504 19.977674 32.770742
589   2 0.0000  1.075504 28.424597  7.429973
590   2 0.0000  1.075504 28.424597 15.876896
591   2 0.0000  1.075504 28.424597 24.323819
592   2 0.0000  1.075504 28.424597 32.770742
593   2 0.0000  9.522427  3.083828  7.429973
594   2 0.0000  9.522427  3.083828 15.876896
595   2 0.0000  9.522427  3.083828 24.323819
596   2 0.0000  9.522427  3.083828 32.770742
597   2 0.0000  9.522427 11.530751  7.429973
598   2 0.0000  9.522427 11.530751 15.876896
599   2 0.0000  9.522427 11.530751 24.323819
600   2 0.0000  9.522427 11.530751 32.770742
601   2 0.0000  9.522427 19.977674  7.429973
602   2 0.0000  9.522427 19.977674 15.876896
603   2 0.0000  9.522427 19.977674 24.323819
604   2 0.0000  9.522427 19.977674 32.770742
605   2 0.0000  9.522427 28.424597  7.429973
606   2 0.0000  9.522427 28.424597 15.876896
607   2 0.0000  9.522427 28.424597 24.323819
608   2 0.0000  9.522427 28.424597 32.770742
609   2 0.0000 17.969350  3.083828  7.429973
610   2 0.0000 17.969350  3.083828 15.876896
611   2 0.0000 17.969350  3.083828 24.323819
612   2 0.0000 17.969350  3.083828 32.770742
613   2 0.0000 17.969350 11.530751  7.429973
614   2 0.0000 17.969350 11.530751 15.876896
615   2 0.0000 17.969350 11.530751 24.323819
616   2 0.0000 17.969350 11.530751 32.770742
617   2 0.0000 17.969350 19.977674  7.429973
618   2 0.0000 17.969350 19.977674 15.876896
619   2 0.0000 17.969350 19.977674 24.323819
620   2 0.0000 17.969350 19.977674 32.770742
621   2 0.0000 17.969350 28.424597  7.429973
622   2 0.0000 17.969350 28.424597 15.876896
623   2 0.0000 17.969350 28.424597 24.323819
624   2 0.0000 17.969350 28.424597 32.770742
625   2 0.0000 26.416273  3.083828  7.429973
626   2 0.0000 26.416273  3.083828 15.876896
627   2 0.0000 26.416273  3.083828 24.323819
628   2 0.0000 26.416273  3.083828 32.770742
629   2 0.0000 26.416273 11.530751  7.429973
630   2 0.0000 26.416273 11.530751 15.876896
631   2 0.0000 26.416273 11.530751 24.323819
632   2 0.0000 26.416273 11.530751 32.770742
633   2 0.0000 26.416273 19.977674  7.429973
634   2 0.0000 26.416273 19.977674 15.876896
635   2 0.0000 26.416273 19.977674 24.323819
636   2 0.0000 26.416273 19.977674 32.770742
637   2 0.0000 26.416273 28.424597  7.429973
638   2 0.0000 26.416273 28.424597 15.876896
639   2 0.0000 26.416273 28.424597 24.323819
640   2 0.0000 26.416273 28.424597 32.770742
641   2 0.0000  1.139634  1.016950  5.298966
642   2 0.0000  1.139634  1.016950 13.745889
643   2 0.0000  1.139634  1.016950 22.192812
644   2 0.0000  1.139634  1.016950 30.639735
645   2 0.0000  1.139634  9.463873  5.298966
646   2 0.0000  1.139634  9.463873 13.745889
647   2 0.0000  1.139634  9.463873 22.192812
648   2 0.0000  1.139634  9.463873 30.639735
649   2 0.0000  1.139634 17.910796  5.298966
650   2 0.0000  1.139634 17.910796 13.745889
651   2 0.0000  1.139634 17.910796 22.192812
652   2 0.0000  1.139634 17.910796 30.639735
653   2 0.0000  1.139634 26.357719  5.298966
654   2 0.0000  1.139634 26.357719 13.745889
655   2 0.0000  1.139634 26.357719 22.192812
656   2 0.0000  1.139634 26.357719 30.639735
657   2 0.0000  9.586557  1.016950  5.298966
658   2 0.0000  9.586557  1.016950 13.745889
659   2 0.0000  9.586557  1.016950 22.192812
660   2 0.0000  9.586557  1.016950 30.639735
661   2 0.0000  9.586557  9.463873  5.298966