Generated by pymatgen.io.lammps.data.LammpsData

3200  atoms

   4  atom types

0.000000 22.461078  xlo xhi
0.000000 53.608416  ylo yhi
0.000000 31.862463  zlo zhi
5.170074 -0.677431 4.256297  xy xz yz

Masses

1   6.9410
2  51.9961
3  28.0855
4  15.9994

Atoms

1     1  0.5250  0.976992  1.158481  3.196458
2     1  0.5250  0.807634  2.222555 11.162074
3     1  0.5250  0.638277  3.286629 19.127690
4     1  0.5250  0.468919  4.350704 27.093305
5     1  0.5250  2.269510 14.560585  3.196458
6     1  0.5250  2.100153 15.624659 11.162074
7     1  0.5250  1.930795 16.688733 19.127690
8     1  0.5250  1.761438 17.752808 27.093305
9     1  0.5250  3.562029 27.962689  3.196458
10    1  0.5250  3.392671 29.026763 11.162074
11    1  0.5250  3.223314 30.090837 19.127690
12    1  0.5250  3.053956 31.154912 27.093305
13    1  0.5250  4.854547 41.364793  3.196458
14    1  0.5250  4.685190 42.428867 11.162074
15    1  0.5250  4.515832 43.492941 19.127690
16    1  0.5250  4.346474 44.557016 27.093305
17    1  0.5250  6.592261  1.158481  3.196458
18    1  0.5250  6.422904  2.222555 11.162074
19    1  0.5250  6.253546  3.286629 19.127690
20    1  0.5250  6.084189  4.350704 27.093305
21    1  0.5250  7.884780 14.560585  3.196458
22    1  0.5250  7.715422 15.624659 11.162074
23    1  0.5250  7.546065 16.688733 19.127690
24    1  0.5250  7.376707 17.752808 27.093305
25    1  0.5250  9.177298 27.962689  3.196458
26    1  0.5250  9.007941 29.026763 11.162074
27    1  0.5250  8.838583 30.090837 19.127690
28    1  0.5250  8.669225 31.154912 27.093305
29    1  0.5250 10.469817 41.364793  3.196458
30    1  0.5250 10.300459 42.428867 11.162074
31    1  0.5250 10.131101 43.492941 19.127690
32    1  0.5250  9.961744 44.557016 27.093305
33    1  0.5250 12.207531  1.158481  3.196458
34    1  0.5250 12.038173  2.222555 11.162074
35    1  0.5250 11.868816  3.286629 19.127690
36    1  0.5250 11.699458  4.350704 27.093305
37    1  0.5250 13.500049 14.560585  3.196458
38    1  0.5250 13.330692 15.624659 11.162074
39    1  0.5250 13.161334 16.688733 19.127690
40    1  0.5250 12.991976 17.752808 27.093305
41    1  0.5250 14.792568 27.962689  3.196458
42    1  0.5250 14.623210 29.026763 11.162074
43    1  0.5250 14.453853 30.090837 19.127690
44    1  0.5250 14.284495 31.154912 27.093305
45    1  0.5250 16.085086 41.364793  3.196458
46    1  0.5250 15.915729 42.428867 11.162074
47    1  0.5250 15.746371 43.492941 19.127690
48    1  0.5250 15.577013 44.557016 27.093305
49    1  0.5250 17.822800  1.158481  3.196458
50    1  0.5250 17.653443  2.222555 11.162074
51    1  0.5250 17.484085  3.286629 19.127690
52    1  0.5250 17.314728  4.350704 27.093305
53    1  0.5250 19.115319 14.560585  3.196458
54    1  0.5250 18.945961 15.624659 11.162074
55    1  0.5250 18.776604 16.688733 19.127690
56    1  0.5250 18.607246 17.752808 27.093305
57    1  0.5250 20.407837 27.962689  3.196458
58    1  0.5250 20.238480 29.026763 11.162074
59    1  0.5250 20.069122 30.090837 19.127690
60    1  0.5250 19.899764 31.154912 27.093305
61    1  0.5250 21.700356 41.364793  3.196458
62    1  0.5250 21.530998 42.428867 11.162074
63    1  0.5250 21.361640 43.492941 19.127690
64    1  0.5250 21.192283 44.557016 27.093305
65    1  0.5250  4.345536  8.390940  7.179067
66    1  0.5250  4.176178  9.455014 15.144683
67    1  0.5250  4.006820 10.519089 23.110298
68    1  0.5250  3.837463 11.583163 31.075914
69    1  0.5250  5.638054 21.793044  7.179067
70    1  0.5250  5.468696 22.857119 15.144683
71    1  0.5250  5.299339 23.921193 23.110298
72    1  0.5250  5.129981 24.985267 31.075914
73    1  0.5250  6.930572 35.195148  7.179067
74    1  0.5250  6.761215 36.259223 15.144683
75    1  0.5250  6.591857 37.323297 23.110298
76    1  0.5250  6.422499 38.387371 31.075914
77    1  0.5250  8.223091 48.597252  7.179067
78    1  0.5250  8.053733 49.661327 15.144683
79    1  0.5250  7.884376 50.725401 23.110298
80    1  0.5250  7.715018 51.789475 31.075914
81    1  0.5250  9.960805  8.390940  7.179067
82    1  0.5250  9.791447  9.455014 15.144683
83    1  0.5250  9.622090 10.519089 23.110298
84    1  0.5250  9.452732 11.583163 31.075914
85    1  0.5250 11.253323 21.793044  7.179067
86    1  0.5250 11.083966 22.857119 15.144683
87    1  0.5250 10.914608 23.921193 23.110298
88    1  0.5250 10.745251 24.985267 31.075914
89    1  0.5250 12.545842 35.195148  7.179067
90    1  0.5250 12.376484 36.259223 15.144683
91    1  0.5250 12.207127 37.323297 23.110298
92    1  0.5250 12.037769 38.387371 31.075914
93    1  0.5250 13.838360 48.597252  7.179067
94    1  0.5250 13.669003 49.661327 15.144683
95    1  0.5250 13.499645 50.725401 23.110298
96    1  0.5250 13.330287 51.789475 31.075914
97    1  0.5250 15.576074  8.390940  7.179067
98    1  0.5250 15.406717  9.455014 15.144683
99    1  0.5250 15.237359 10.519089 23.110298
100   1  0.5250 15.068002 11.583163 31.075914
101   1  0.5250 16.868593 21.793044  7.179067
102   1  0.5250 16.699235 22.857119 15.144683
103   1  0.5250 16.529878 23.921193 23.110298
104   1  0.5250 16.360520 24.985267 31.075914
105   1  0.5250 18.161111 35.195148  7.179067
106   1  0.5250 17.991754 36.259223 15.144683
107   1  0.5250 17.822396 37.323297 23.110298
108   1  0.5250 17.653038 38.387371 31.075914
109   1  0.5250 19.453630 48.597252  7.179067
110   1  0.5250 19.284272 49.661327 15.144683
111   1  0.5250 19.114915 50.725401 23.110298
112   1  0.5250 18.945557 51.789475 31.075914
113   1  0.5250 21.191344  8.390940  7.179067
114   1  0.5250 21.021986  9.455014 15.144683
115   1  0.5250 20.852629 10.519089 23.110298
116   1  0.5250 20.683271 11.583163 31.075914
117   1  0.5250 22.483862 21.793044  7.179067
118   1  0.5250 22.314505 22.857119 15.144683
119   1  0.5250 22.145147 23.921193 23.110298
120   1  0.5250 21.975789 24.985267 31.075914
121   1  0.5250 23.776381 35.195148  7.179067
122   1  0.5250 23.607023 36.259223 15.144683
123   1  0.5250 23.437666 37.323297 23.110298
124   1  0.5250 23.268308 38.387371 31.075914
125   1  0.5250 25.068899 48.597252  7.179067
126   1  0.5250 24.899542 49.661327 15.144683
127   1  0.5250 24.730184 50.725401 23.110298
128   1  0.5250 24.560826 51.789475 31.075914
129   1  0.5250  2.392854  6.075346  0.786557
130   1  0.5250  2.223497  7.139421  8.752172
131   1  0.5250  2.054139  8.203495 16.717788
132   1  0.5250  1.884782  9.267569 24.683404
133   1  0.5250  3.685373 19.477450  0.786557
134   1  0.5250  3.516015 20.541525  8.752172
135   1  0.5250  3.346658 21.605599 16.717788
136   1  0.5250  3.177300 22.669673 24.683404
137   1  0.5250  4.977891 32.879555  0.786557
138   1  0.5250  4.808534 33.943629  8.752172
139   1  0.5250  4.639176 35.007703 16.717788
140   1  0.5250  4.469818 36.071777 24.683404
141   1  0.5250  6.270410 46.281659  0.786557
142   1  0.5250  6.101052 47.345733  8.752172
143   1  0.5250  5.931694 48.409807 16.717788
144   1  0.5250  5.762337 49.473881 24.683404
145   1  0.5250  8.008124  6.075346  0.786557
146   1  0.5250  7.838766  7.139421  8.752172
147   1  0.5250  7.669409  8.203495 16.717788
148   1  0.5250  7.500051  9.267569 24.683404
149   1  0.5250  9.300642 19.477450  0.786557
150   1  0.5250  9.131285 20.541525  8.752172
151   1  0.5250  8.961927 21.605599 16.717788
152   1  0.5250  8.792569 22.669673 24.683404
153   1  0.5250 10.593161 32.879555  0.786557
154   1  0.5250 10.423803 33.943629  8.752172
155   1  0.5250 10.254446 35.007703 16.717788
156   1  0.5250 10.085088 36.071777 24.683404
157   1  0.5250 11.885679 46.281659  0.786557
158   1  0.5250 11.716322 47.345733  8.752172
159   1  0.5250 11.546964 48.409807 16.717788
160   1  0.5250 11.377606 49.473881 24.683404
161   1  0.5250 13.623393  6.075346  0.786557
162   1  0.5250 13.454036  7.139421  8.752172
163   1  0.5250 13.284678  8.203495 16.717788
164   1  0.5250 13.115320  9.267569 24.683404
165   1  0.5250 14.915912 19.477450  0.786557
166   1  0.5250 14.746554 20.541525  8.752172
167   1  0.5250 14.577197 21.605599 16.717788
168   1  0.5250 14.407839 22.669673 24.683404
169   1  0.5250 16.208430 32.879555  0.786557
170   1  0.5250 16.039073 33.943629  8.752172
171   1  0.5250 15.869715 35.007703 16.717788
172   1  0.5250 15.700357 36.071777 24.683404
173   1  0.5250 17.500949 46.281659  0.786557
174   1  0.5250 17.331591 47.345733  8.752172
175   1  0.5250 17.162233 48.409807 16.717788
176   1  0.5250 16.992876 49.473881 24.683404
177   1  0.5250 19.238663  6.075346  0.786557
178   1  0.5250 19.069305  7.139421  8.752172
179   1  0.5250 18.899948  8.203495 16.717788
180   1  0.5250 18.730590  9.267569 24.683404
181   1  0.5250 20.531181 19.477450  0.786557
182   1  0.5250 20.361824 20.541525  8.752172
183   1  0.5250 20.192466 21.605599 16.717788
184   1  0.5250 20.023108 22.669673 24.683404
185   1  0.5250 21.823700 32.879555  0.786557
186   1  0.5250 21.654342 33.943629  8.752172
187   1  0.5250 21.484984 35.007703 16.717788
188   1  0.5250 21.315627 36.071777 24.683404
189   1  0.5250 23.116218 46.281659  0.786557
190   1  0.5250 22.946861 47.345733  8.752172
191   1  0.5250 22.777503 48.409807 16.717788
192   1  0.5250 22.608145 49.473881 24.683404
193   1  0.5250  5.761366 13.307757  4.769301
194   1  0.5250  5.592009 14.371831 12.734917
195   1  0.5250  5.422651 15.435906 20.700532
196   1  0.5250  5.253293 16.499980 28.666148
197   1  0.5250  7.053885 26.709861  4.769301
198   1  0.5250  6.884527 27.773935 12.734917
199   1  0.5250  6.715169 28.838010 20.700532
200   1  0.5250  6.545812 29.902084 28.666148
201   1  0.5250  8.346403 40.111965  4.769301
202   1  0.5250  8.177045 41.176039 12.734917
203   1  0.5250  8.007688 42.240114 20.700532
204   1  0.5250  7.838330 43.304188 28.666148
205   1  0.5250  9.638921 53.514069  4.769301
206   1  0.5250  9.469564 54.578143 12.734917
207   1  0.5250  9.300206 55.642218 20.700532
208   1  0.5250  9.130849 56.706292 28.666148
209   1  0.5250 11.376636 13.307757  4.769301
210   1  0.5250 11.207278 14.371831 12.734917
211   1  0.5250 11.037920 15.435906 20.700532
212   1  0.5250 10.868563 16.499980 28.666148
213   1  0.5250 12.669154 26.709861  4.769301
214   1  0.5250 12.499796 27.773935 12.734917
215   1  0.5250 12.330439 28.838010 20.700532
216   1  0.5250 12.161081 29.902084 28.666148
217   1  0.5250 13.961672 40.111965  4.769301
218   1  0.5250 13.792315 41.176039 12.734917
219   1  0.5250 13.622957 42.240114 20.700532
220   1  0.5250 13.453600 43.304188 28.666148
221   1  0.5250 15.254191 53.514069  4.769301
222   1  0.5250 15.084833 54.578143 12.734917
223   1  0.5250 14.915476 55.642218 20.700532
224   1  0.5250 14.746118 56.706292 28.666148
225   1  0.5250 16.991905 13.307757  4.769301
226   1  0.5250 16.822547 14.371831 12.734917
227   1  0.5250 16.653190 15.435906 20.700532
228   1  0.5250 16.483832 16.499980 28.666148
229   1  0.5250 18.284424 26.709861  4.769301
230   1  0.5250 18.115066 27.773935 12.734917
231   1  0.5250 17.945708 28.838010 20.700532
232   1  0.5250 17.776351 29.902084 28.666148
233   1  0.5250 19.576942 40.111965  4.769301
234   1  0.5250 19.407584 41.176039 12.734917
235   1  0.5250 19.238227 42.240114 20.700532
236   1  0.5250 19.068869 43.304188 28.666148
237   1  0.5250 20.869460 53.514069  4.769301
238   1  0.5250 20.700103 54.578143 12.734917
239   1  0.5250 20.530745 55.642218 20.700532
240   1  0.5250 20.361388 56.706292 28.666148
241   1  0.5250 22.607175 13.307757  4.769301
242   1  0.5250 22.437817 14.371831 12.734917
243   1  0.5250 22.268459 15.435906 20.700532
244   1  0.5250 22.099102 16.499980 28.666148
245   1  0.5250 23.899693 26.709861  4.769301
246   1  0.5250 23.730335 27.773935 12.734917
247   1  0.5250 23.560978 28.838010 20.700532
248   1  0.5250 23.391620 29.902084 28.666148
249   1  0.5250 25.192211 40.111965  4.769301
250   1  0.5250 25.022854 41.176039 12.734917
251   1  0.5250 24.853496 42.240114 20.700532
252   1  0.5250 24.684139 43.304188 28.666148
253   1  0.5250 26.484730 53.514069  4.769301
254   1  0.5250 26.315372 54.578143 12.734917
255   1  0.5250 26.146015 55.642218 20.700532
256   1  0.5250 25.976657 56.706292 28.666148
257   2  1.5750  3.368860  7.232624  3.983342
258   2  1.5750  3.199502  8.296699 11.948957
259   2  1.5750  3.030145  9.360773 19.914573
260   2  1.5750  2.860787 10.424847 27.880189
261   2  1.5750  4.661379 20.634728  3.983342
262   2  1.5750  4.492021 21.698803 11.948957
263   2  1.5750  4.322663 22.762877 19.914573
264   2  1.5750  4.153306 23.826951 27.880189
265   2  1.5750  5.953897 34.036832  3.983342
266   2  1.5750  5.784539 35.100907 11.948957
267   2  1.5750  5.615182 36.164981 19.914573
268   2  1.5750  5.445824 37.229055 27.880189
269   2  1.5750  7.246415 47.438937  3.983342
270   2  1.5750  7.077058 48.503011 11.948957
271   2  1.5750  6.907700 49.567085 19.914573
272   2  1.5750  6.738343 50.631159 27.880189
273   2  1.5750  8.984130  7.232624  3.983342
274   2  1.5750  8.814772  8.296699 11.948957
275   2  1.5750  8.645414  9.360773 19.914573
276   2  1.5750  8.476057 10.424847 27.880189
277   2  1.5750 10.276648 20.634728  3.983342
278   2  1.5750 10.107290 21.698803 11.948957
279   2  1.5750  9.937933 22.762877 19.914573
280   2  1.5750  9.768575 23.826951 27.880189
281   2  1.5750 11.569166 34.036832  3.983342
282   2  1.5750 11.399809 35.100907 11.948957
283   2  1.5750 11.230451 36.164981 19.914573
284   2  1.5750 11.061094 37.229055 27.880189
285   2  1.5750 12.861685 47.438937  3.983342
286   2  1.5750 12.692327 48.503011 11.948957
287   2  1.5750 12.522970 49.567085 19.914573
288   2  1.5750 12.353612 50.631159 27.880189
289   2  1.5750 14.599399  7.232624  3.983342
290   2  1.5750 14.430041  8.296699 11.948957
291   2  1.5750 14.260684  9.360773 19.914573
292   2  1.5750 14.091326 10.424847 27.880189
293   2  1.5750 15.891917 20.634728  3.983342
294   2  1.5750 15.722560 21.698803 11.948957
295   2  1.5750 15.553202 22.762877 19.914573
296   2  1.5750 15.383845 23.826951 27.880189
297   2  1.5750 17.184436 34.036832  3.983342
298   2  1.5750 17.015078 35.100907 11.948957
299   2  1.5750 16.845721 36.164981 19.914573
300   2  1.5750 16.676363 37.229055 27.880189
301   2  1.5750 18.476954 47.438937  3.983342
302   2  1.5750 18.307597 48.503011 11.948957
303   2  1.5750 18.138239 49.567085 19.914573
304   2  1.5750 17.968881 50.631159 27.880189
305   2  1.5750 20.214669  7.232624  3.983342
306   2  1.5750 20.045311  8.296699 11.948957
307   2  1.5750 19.875953  9.360773 19.914573
308   2  1.5750 19.706596 10.424847 27.880189
309   2  1.5750 21.507187 20.634728  3.983342
310   2  1.5750 21.337829 21.698803 11.948957
311   2  1.5750 21.168472 22.762877 19.914573
312   2  1.5750 20.999114 23.826951 27.880189
313   2  1.5750 22.799705 34.036832  3.983342
314   2  1.5750 22.630348 35.100907 11.948957
315   2  1.5750 22.460990 36.164981 19.914573
316   2  1.5750 22.291633 37.229055 27.880189
317   2  1.5750 24.092224 47.438937  3.983342
318   2  1.5750 23.922866 48.503011 11.948957
319   2  1.5750 23.753509 49.567085 19.914573
320   2  1.5750 23.584151 50.631159 27.880189
321   2  1.5750  5.096997  3.234158  4.929011
322   2  1.5750  4.927639  4.298232 12.894627
323   2  1.5750  4.758282  5.362306 20.860243
324   2  1.5750  4.588924  6.426381 28.825859
325   2  1.5750  6.389515 16.636262  4.929011
326   2  1.5750  6.220158 17.700336 12.894627
327   2  1.5750  6.050800 18.764410 20.860243
328   2  1.5750  5.881442 19.828485 28.825859
329   2  1.5750  7.682034 30.038366  4.929011
330   2  1.5750  7.512676 31.102440 12.894627
331   2  1.5750  7.343318 32.166515 20.860243
332   2  1.5750  7.173961 33.230589 28.825859
333   2  1.5750  8.974552 43.440470  4.929011
334   2  1.5750  8.805195 44.504544 12.894627
335   2  1.5750  8.635837 45.568619 20.860243
336   2  1.5750  8.466479 46.632693 28.825859
337   2  1.5750 10.712266  3.234158  4.929011
338   2  1.5750 10.542909  4.298232 12.894627
339   2  1.5750 10.373551  5.362306 20.860243
340   2  1.5750 10.204193  6.426381 28.825859
341   2  1.5750 12.004785 16.636262  4.929011
342   2  1.5750 11.835427 17.700336 12.894627
343   2  1.5750 11.666069 18.764410 20.860243
344   2  1.5750 11.496712 19.828485 28.825859
345   2  1.5750 13.297303 30.038366  4.929011
346   2  1.5750 13.127946 31.102440 12.894627
347   2  1.5750 12.958588 32.166515 20.860243
348   2  1.5750 12.789230 33.230589 28.825859
349   2  1.5750 14.589822 43.440470  4.929011
350   2  1.5750 14.420464 44.504544 12.894627
351   2  1.5750 14.251106 45.568619 20.860243
352   2  1.5750 14.081749 46.632693 28.825859
353   2  1.5750 16.327536  3.234158  4.929011
354   2  1.5750 16.158178  4.298232 12.894627
355   2  1.5750 15.988821  5.362306 20.860243
356   2  1.5750 15.819463  6.426381 28.825859
357   2  1.5750 17.620054 16.636262  4.929011
358   2  1.5750 17.450697 17.700336 12.894627
359   2  1.5750 17.281339 18.764410 20.860243
360   2  1.5750 17.111981 19.828485 28.825859
361   2  1.5750 18.912573 30.038366  4.929011
362   2  1.5750 18.743215 31.102440 12.894627
363   2  1.5750 18.573857 32.166515 20.860243
364   2  1.5750 18.404500 33.230589 28.825859
365   2  1.5750 20.205091 43.440470  4.929011
366   2  1.5750 20.035733 44.504544 12.894627
367   2  1.5750 19.866376 45.568619 20.860243
368   2  1.5750 19.697018 46.632693 28.825859
369   2  1.5750 21.942805  3.234158  4.929011
370   2  1.5750 21.773448  4.298232 12.894627
371   2  1.5750 21.604090  5.362306 20.860243
372   2  1.5750 21.434732  6.426381 28.825859
373   2  1.5750 23.235324 16.636262  4.929011
374   2  1.5750 23.065966 17.700336 12.894627
375   2  1.5750 22.896608 18.764410 20.860243
376   2  1.5750 22.727251 19.828485 28.825859
377   2  1.5750 24.527842 30.038366  4.929011
378   2  1.5750 24.358485 31.102440 12.894627
379   2  1.5750 24.189127 32.166515 20.860243
380   2  1.5750 24.019769 33.230589 28.825859
381   2  1.5750 25.820361 43.440470  4.929011
382   2  1.5750 25.651003 44.504544 12.894627
383   2  1.5750 25.481645 45.568619 20.860243
384   2  1.5750 25.312288 46.632693 28.825859
385   2  1.5750  3.018895  9.408892  0.938557
386   2  1.5750  2.849537 10.472967  8.904172
387   2  1.5750  2.680180 11.537041 16.869788
388   2  1.5750  2.510822 12.601115 24.835404
389   2  1.5750  4.311413 22.810997  0.938557
390   2  1.5750  4.142056 23.875071  8.904172
391   2  1.5750  3.972698 24.939145 16.869788
392   2  1.5750  3.803340 26.003219 24.835404
393   2  1.5750  5.603932 36.213101  0.938557
394   2  1.5750  5.434574 37.277175  8.904172
395   2  1.5750  5.265216 38.341249 16.869788
396   2  1.5750  5.095859 39.405323 24.835404
397   2  1.5750  6.896450 49.615205  0.938557
398   2  1.5750  6.727092 50.679279  8.904172
399   2  1.5750  6.557735 51.743353 16.869788
400   2  1.5750  6.388377 52.807427 24.835404
401   2  1.5750  8.634164  9.408892  0.938557
402   2  1.5750  8.464807 10.472967  8.904172
403   2  1.5750  8.295449 11.537041 16.869788
404   2  1.5750  8.126091 12.601115 24.835404
405   2  1.5750  9.926683 22.810997  0.938557
406   2  1.5750  9.757325 23.875071  8.904172
407   2  1.5750  9.587967 24.939145 16.869788
408   2  1.5750  9.418610 26.003219 24.835404
409   2  1.5750 11.219201 36.213101  0.938557
410   2  1.5750 11.049844 37.277175  8.904172
411   2  1.5750 10.880486 38.341249 16.869788
412   2  1.5750 10.711128 39.405323 24.835404
413   2  1.5750 12.511720 49.615205  0.938557
414   2  1.5750 12.342362 50.679279  8.904172
415   2  1.5750 12.173004 51.743353 16.869788
416   2  1.5750 12.003647 52.807427 24.835404
417   2  1.5750 14.249434  9.408892  0.938557
418   2  1.5750 14.080076 10.472967  8.904172
419   2  1.5750 13.910719 11.537041 16.869788
420   2  1.5750 13.741361 12.601115 24.835404
421   2  1.5750 15.541952 22.810997  0.938557
422   2  1.5750 15.372595 23.875071  8.904172
423   2  1.5750 15.203237 24.939145 16.869788
424   2  1.5750 15.033879 26.003219 24.835404
425   2  1.5750 16.834471 36.213101  0.938557
426   2  1.5750 16.665113 37.277175  8.904172
427   2  1.5750 16.495755 38.341249 16.869788
428   2  1.5750 16.326398 39.405323 24.835404
429   2  1.5750 18.126989 49.615205  0.938557
430   2  1.5750 17.957631 50.679279  8.904172
431   2  1.5750 17.788274 51.743353 16.869788
432   2  1.5750 17.618916 52.807427 24.835404
433   2  1.5750 19.864703  9.408892  0.938557
434   2  1.5750 19.695346 10.472967  8.904172
435   2  1.5750 19.525988 11.537041 16.869788
436   2  1.5750 19.356630 12.601115 24.835404
437   2  1.5750 21.157222 22.810997  0.938557
438   2  1.5750 20.987864 23.875071  8.904172
439   2  1.5750 20.818506 24.939145 16.869788
440   2  1.5750 20.649149 26.003219 24.835404
441   2  1.5750 22.449740 36.213101  0.938557
442   2  1.5750 22.280382 37.277175  8.904172
443   2  1.5750 22.111025 38.341249 16.869788
444   2  1.5750 21.941667 39.405323 24.835404
445   2  1.5750 23.742259 49.615205  0.938557
446   2  1.5750 23.572901 50.679279  8.904172
447   2  1.5750 23.403543 51.743353 16.869788
448   2  1.5750 23.234186 52.807427 24.835404
449   2  1.5750  3.719317  5.057493  7.026804
450   2  1.5750  3.549959  6.121567 14.992420
451   2  1.5750  3.380602  7.185642 22.958036
452   2  1.5750  3.211244  8.249716 30.923651
453   2  1.5750  5.011836 18.459597  7.026804
454   2  1.5750  4.842478 19.523671 14.992420
455   2  1.5750  4.673120 20.587746 22.958036
456   2  1.5750  4.503763 21.651820 30.923651
457   2  1.5750  6.304354 31.861701  7.026804
458   2  1.5750  6.134996 32.925775 14.992420
459   2  1.5750  5.965639 33.989850 22.958036
460   2  1.5750  5.796281 35.053924 30.923651
461   2  1.5750  7.596872 45.263805  7.026804
462   2  1.5750  7.427515 46.327879 14.992420
463   2  1.5750  7.258157 47.391954 22.958036
464   2  1.5750  7.088799 48.456028 30.923651
465   2  1.5750  9.334587  5.057493  7.026804
466   2  1.5750  9.165229  6.121567 14.992420
467   2  1.5750  8.995871  7.185642 22.958036
468   2  1.5750  8.826514  8.249716 30.923651
469   2  1.5750 10.627105 18.459597  7.026804
470   2  1.5750 10.457747 19.523671 14.992420
471   2  1.5750 10.288390 20.587746 22.958036
472   2  1.5750 10.119032 21.651820 30.923651
473   2  1.5750 11.919623 31.861701  7.026804
474   2  1.5750 11.750266 32.925775 14.992420
475   2  1.5750 11.580908 33.989850 22.958036
476   2  1.5750 11.411551 35.053924 30.923651
477   2  1.5750 13.212142 45.263805  7.026804
478   2  1.5750 13.042784 46.327879 14.992420
479   2  1.5750 12.873427 47.391954 22.958036
480   2  1.5750 12.704069 48.456028 30.923651
481   2  1.5750 14.949856  5.057493  7.026804
482   2  1.5750 14.780498  6.121567 14.992420
483   2  1.5750 14.611141  7.185642 22.958036
484   2  1.5750 14.441783  8.249716 30.923651
485   2  1.5750 16.242374 18.459597  7.026804
486   2  1.5750 16.073017 19.523671 14.992420
487   2  1.5750 15.903659 20.587746 22.958036
488   2  1.5750 15.734302 21.651820 30.923651
489   2  1.5750 17.534893 31.861701  7.026804
490   2  1.5750 17.365535 32.925775 14.992420
491   2  1.5750 17.196178 33.989850 22.958036
492   2  1.5750 17.026820 35.053924 30.923651
493   2  1.5750 18.827411 45.263805  7.026804
494   2  1.5750 18.658054 46.327879 14.992420
495   2  1.5750 18.488696 47.391954 22.958036
496   2  1.5750 18.319338 48.456028 30.923651
497   2  1.5750 20.565126  5.057493  7.026804
498   2  1.5750 20.395768  6.121567 14.992420
499   2  1.5750 20.226410  7.185642 22.958036
500   2  1.5750 20.057053  8.249716 30.923651
501   2  1.5750 21.857644 18.459597  7.026804
502   2  1.5750 21.688286 19.523671 14.992420
503   2  1.5750 21.518929 20.587746 22.958036
504   2  1.5750 21.349571 21.651820 30.923651
505   2  1.5750 23.150162 31.861701  7.026804
506   2  1.5750 22.980805 32.925775 14.992420
507   2  1.5750 22.811447 33.989850 22.958036
508   2  1.5750 22.642090 35.053924 30.923651
509   2  1.5750 24.442681 45.263805  7.026804
510   2  1.5750 24.273323 46.327879 14.992420
511   2  1.5750 24.103966 47.391954 22.958036
512   2  1.5750 23.934608 48.456028 30.923651
513   2  1.5750  1.641241 11.232361  3.036142
514   2  1.5750  1.471883 12.296435 11.001758
515   2  1.5750  1.302525 13.360509 18.967374
516   2  1.5750  1.133168 14.424584 26.932989
517   2  1.5750  2.933759 24.634465  3.036142
518   2  1.5750  2.764401 25.698539 11.001758
519   2  1.5750  2.595044 26.762613 18.967374
520   2  1.5750  2.425686 27.826688 26.932989
521   2  1.5750  4.226277 38.036569  3.036142
522   2  1.5750  4.056920 39.100643 11.001758
523   2  1.5750  3.887562 40.164718 18.967374
524   2  1.5750  3.718205 41.228792 26.932989
525   2  1.5750  5.518796 51.438673  3.036142
526   2  1.5750  5.349438 52.502747 11.001758
527   2  1.5750  5.180081 53.566822 18.967374
528   2  1.5750  5.010723 54.630896 26.932989
529   2  1.5750  7.256510 11.232361  3.036142
530   2  1.5750  7.087152 12.296435 11.001758
531   2  1.5750  6.917795 13.360509 18.967374
532   2  1.5750  6.748437 14.424584 26.932989
533   2  1.5750  8.549029 24.634465  3.036142
534   2  1.5750  8.379671 25.698539 11.001758
535   2  1.5750  8.210313 26.762613 18.967374
536   2  1.5750  8.040956 27.826688 26.932989
537   2  1.5750  9.841547 38.036569  3.036142
538   2  1.5750  9.672189 39.100643 11.001758
539   2  1.5750  9.502832 40.164718 18.967374
540   2  1.5750  9.333474 41.228792 26.932989
541   2  1.5750 11.134065 51.438673  3.036142
542   2  1.5750 10.964708 52.502747 11.001758
543   2  1.5750 10.795350 53.566822 18.967374
544   2  1.5750 10.625992 54.630896 26.932989
545   2  1.5750 12.871780 11.232361  3.036142
546   2  1.5750 12.702422 12.296435 11.001758
547   2  1.5750 12.533064 13.360509 18.967374
548   2  1.5750 12.363707 14.424584 26.932989
549   2  1.5750 14.164298 24.634465  3.036142
550   2  1.5750 13.994940 25.698539 11.001758
551   2  1.5750 13.825583 26.762613 18.967374
552   2  1.5750 13.656225 27.826688 26.932989
553   2  1.5750 15.456816 38.036569  3.036142
554   2  1.5750 15.287459 39.100643 11.001758
555   2  1.5750 15.118101 40.164718 18.967374
556   2  1.5750 14.948744 41.228792 26.932989
557   2  1.5750 16.749335 51.438673  3.036142
558   2  1.5750 16.579977 52.502747 11.001758
559   2  1.5750 16.410620 53.566822 18.967374
560   2  1.5750 16.241262 54.630896 26.932989
561   2  1.5750 18.487049 11.232361  3.036142
562   2  1.5750 18.317691 12.296435 11.001758
563   2  1.5750 18.148334 13.360509 18.967374
564   2  1.5750 17.978976 14.424584 26.932989
565   2  1.5750 19.779567 24.634465  3.036142
566   2  1.5750 19.610210 25.698539 11.001758
567   2  1.5750 19.440852 26.762613 18.967374
568   2  1.5750 19.271495 27.826688 26.932989
569   2  1.5750 21.072086 38.036569  3.036142
570   2  1.5750 20.902728 39.100643 11.001758
571   2  1.5750 20.733371 40.164718 18.967374
572   2  1.5750 20.564013 41.228792 26.932989
573   2  1.5750 22.364604 51.438673  3.036142
574   2  1.5750 22.195247 52.502747 11.001758
575   2  1.5750 22.025889 53.566822 18.967374
576   2  1.5750 21.856531 54.630896 26.932989
577   2  1.5750  1.124121 14.465880  7.965592
578   2  1.5750  0.954764 15.529955 15.931208
579   2  1.5750  0.785406 16.594029 23.896823
580   2  1.5750  0.616048 17.658103 31.862439
581   2  1.5750  2.416640 27.867984  7.965592
582   2  1.5750  2.247282 28.932059 15.931208
583   2  1.5750  2.077924 29.996133 23.896823
584   2  1.5750  1.908567 31.060207 31.862439
585   2  1.5750  3.709158 41.270088  7.965592
586   2  1.5750  3.539800 42.334163 15.931208
587   2  1.5750  3.370443 43.398237 23.896823
588   2  1.5750  3.201085 44.462311 31.862439
589   2  1.5750  5.001676 54.672192  7.965592
590   2  1.5750  4.832319 55.736267 15.931208
591   2  1.5750  4.662961 56.800341 23.896823
592   2  1.5750  4.493604 57.864415 31.862439
593   2  1.5750  6.739391 14.465880  7.965592
594   2  1.5750  6.570033 15.529955 15.931208
595   2  1.5750  6.400675 16.594029 23.896823
596   2  1.5750  6.231318 17.658103 31.862439
597   2  1.5750  8.031909 27.867984  7.965592
598   2  1.5750  7.862551 28.932059 15.931208
599   2  1.5750  7.693194 29.996133 23.896823
600   2  1.5750  7.523836 31.060207 31.862439
601   2  1.5750  9.324428 41.270088  7.965592
602   2  1.5750  9.155070 42.334163 15.931208
603   2  1.5750  8.985712 43.398237 23.896823
604   2  1.5750  8.816355 44.462311 31.862439
605   2  1.5750 10.616946 54.672192  7.965592
606   2  1.5750 10.447588 55.736267 15.931208
607   2  1.5750 10.278231 56.800341 23.896823
608   2  1.5750 10.108873 57.864415 31.862439
609   2  1.5750 12.354660 14.465880  7.965592
610   2  1.5750 12.185302 15.529955 15.931208
611   2  1.5750 12.015945 16.594029 23.896823
612   2  1.5750 11.846587 17.658103 31.862439
613   2  1.5750 13.647179 27.867984  7.965592
614   2  1.5750 13.477821 28.932059 15.931208
615   2  1.5750 13.308463 29.996133 23.896823
616   2  1.5750 13.139106 31.060207 31.862439
617   2  1.5750 14.939697 41.270088  7.965592
618   2  1.5750 14.770339 42.334163 15.931208
619   2  1.5750 14.600982 43.398237 23.896823
620   2  1.5750 14.431624 44.462311 31.862439
621   2  1.5750 16.232215 54.672192  7.965592
622   2  1.5750 16.062858 55.736267 15.931208
623   2  1.5750 15.893500 56.800341 23.896823
624   2  1.5750 15.724143 57.864415 31.862439
625   2  1.5750 17.969930 14.465880  7.965592
626   2  1.5750 17.800572 15.529955 15.931208
627   2  1.5750 17.631214 16.594029 23.896823
628   2  1.5750 17.461857 17.658103 31.862439
629   2  1.5750 19.262448 27.867984  7.965592
630   2  1.5750 19.093090 28.932059 15.931208
631   2  1.5750 18.923733 29.996133 23.896823
632   2  1.5750 18.754375 31.060207 31.862439
633   2  1.5750 20.554966 41.270088  7.965592
634   2  1.5750 20.385609 42.334163 15.931208
635   2  1.5750 20.216251 43.398237 23.896823
636   2  1.5750 20.046894 44.462311 31.862439
637   2  1.5750 21.847485 54.672192  7.965592
638   2  1.5750 21.678127 55.736267 15.931208
639   2  1.5750 21.508770 56.800341 23.896823
640   2  1.5750 21.339412 57.864415 31.862439
641   2  1.5750  2.434389  4.287431  3.384686
642   2  1.5750  2.265031  5.351506 11.350301
643   2  1.5750  2.095674  6.415580 19.315917
644   2  1.5750  1.926316  7.479654 27.281533
645   2  1.5750  3.726907 17.689535  3.384686
646   2  1.5750  3.557550 18.753610 11.350301