Generated by pymatgen.io.lammps.data.LammpsData

3888  atoms

   4  atom types

0.000000 33.121146  xlo xhi
0.000000 34.132362  ylo yhi
0.000000 51.154578  zlo zhi
2.562600 13.390740 4.852116  xy xz yz

Masses

1  85.4678
2   6.9410
3  28.0855
4  15.9994

Atoms

1     1  0.8200  4.627108  5.429878  6.234848
2     1  0.8200  6.858898  6.238564 14.760611
3     1  0.8200  9.090688  7.047250 23.286374
4     1  0.8200 11.322478  7.855936 31.812137
5     1  0.8200 13.554268  8.664622 40.337900
6     1  0.8200 15.786058  9.473308 48.863663
7     1  0.8200  5.054208 11.118605  6.234848
8     1  0.8200  7.285998 11.927291 14.760611
9     1  0.8200  9.517788 12.735977 23.286374
10    1  0.8200 11.749578 13.544663 31.812137
11    1  0.8200 13.981368 14.353349 40.337900
12    1  0.8200 16.213158 15.162035 48.863663
13    1  0.8200  5.481308 16.807332  6.234848
14    1  0.8200  7.713098 17.616018 14.760611
15    1  0.8200  9.944888 18.424704 23.286374
16    1  0.8200 12.176678 19.233390 31.812137
17    1  0.8200 14.408468 20.042076 40.337900
18    1  0.8200 16.640258 20.850762 48.863663
19    1  0.8200  5.908408 22.496059  6.234848
20    1  0.8200  8.140198 23.304745 14.760611
21    1  0.8200 10.371988 24.113431 23.286374
22    1  0.8200 12.603778 24.922117 31.812137
23    1  0.8200 14.835568 25.730803 40.337900
24    1  0.8200 17.067358 26.539489 48.863663
25    1  0.8200  6.335508 28.184786  6.234848
26    1  0.8200  8.567298 28.993472 14.760611
27    1  0.8200 10.799088 29.802158 23.286374
28    1  0.8200 13.030878 30.610844 31.812137
29    1  0.8200 15.262668 31.419530 40.337900
30    1  0.8200 17.494458 32.228216 48.863663
31    1  0.8200  6.762608 33.873513  6.234848
32    1  0.8200  8.994398 34.682199 14.760611
33    1  0.8200 11.226188 35.490885 23.286374
34    1  0.8200 13.457978 36.299571 31.812137
35    1  0.8200 15.689768 37.108257 40.337900
36    1  0.8200 17.921558 37.916943 48.863663
37    1  0.8200 10.147299  5.429878  6.234848
38    1  0.8200 12.379089  6.238564 14.760611
39    1  0.8200 14.610879  7.047250 23.286374
40    1  0.8200 16.842669  7.855936 31.812137
41    1  0.8200 19.074459  8.664622 40.337900
42    1  0.8200 21.306249  9.473308 48.863663
43    1  0.8200 10.574399 11.118605  6.234848
44    1  0.8200 12.806189 11.927291 14.760611
45    1  0.8200 15.037979 12.735977 23.286374
46    1  0.8200 17.269769 13.544663 31.812137
47    1  0.8200 19.501559 14.353349 40.337900
48    1  0.8200 21.733349 15.162035 48.863663
49    1  0.8200 11.001499 16.807332  6.234848
50    1  0.8200 13.233289 17.616018 14.760611
51    1  0.8200 15.465079 18.424704 23.286374
52    1  0.8200 17.696869 19.233390 31.812137
53    1  0.8200 19.928659 20.042076 40.337900
54    1  0.8200 22.160449 20.850762 48.863663
55    1  0.8200 11.428599 22.496059  6.234848
56    1  0.8200 13.660389 23.304745 14.760611
57    1  0.8200 15.892179 24.113431 23.286374
58    1  0.8200 18.123969 24.922117 31.812137
59    1  0.8200 20.355759 25.730803 40.337900
60    1  0.8200 22.587549 26.539489 48.863663
61    1  0.8200 11.855699 28.184786  6.234848
62    1  0.8200 14.087489 28.993472 14.760611
63    1  0.8200 16.319279 29.802158 23.286374
64    1  0.8200 18.551069 30.610844 31.812137
65    1  0.8200 20.782859 31.419530 40.337900
66    1  0.8200 23.014649 32.228216 48.863663
67    1  0.8200 12.282799 33.873513  6.234848
68    1  0.8200 14.514589 34.682199 14.760611
69    1  0.8200 16.746379 35.490885 23.286374
70    1  0.8200 18.978169 36.299571 31.812137
71    1  0.8200 21.209959 37.108257 40.337900
72    1  0.8200 23.441749 37.916943 48.863663
73    1  0.8200 15.667490  5.429878  6.234848
74    1  0.8200 17.899280  6.238564 14.760611
75    1  0.8200 20.131070  7.047250 23.286374
76    1  0.8200 22.362860  7.855936 31.812137
77    1  0.8200 24.594650  8.664622 40.337900
78    1  0.8200 26.826440  9.473308 48.863663
79    1  0.8200 16.094590 11.118605  6.234848
80    1  0.8200 18.326380 11.927291 14.760611
81    1  0.8200 20.558170 12.735977 23.286374
82    1  0.8200 22.789960 13.544663 31.812137
83    1  0.8200 25.021750 14.353349 40.337900
84    1  0.8200 27.253540 15.162035 48.863663
85    1  0.8200 16.521690 16.807332  6.234848
86    1  0.8200 18.753480 17.616018 14.760611
87    1  0.8200 20.985270 18.424704 23.286374
88    1  0.8200 23.217060 19.233390 31.812137
89    1  0.8200 25.448850 20.042076 40.337900
90    1  0.8200 27.680640 20.850762 48.863663
91    1  0.8200 16.948790 22.496059  6.234848
92    1  0.8200 19.180580 23.304745 14.760611
93    1  0.8200 21.412370 24.113431 23.286374
94    1  0.8200 23.644160 24.922117 31.812137
95    1  0.8200 25.875950 25.730803 40.337900
96    1  0.8200 28.107740 26.539489 48.863663
97    1  0.8200 17.375890 28.184786  6.234848
98    1  0.8200 19.607680 28.993472 14.760611
99    1  0.8200 21.839470 29.802158 23.286374
100   1  0.8200 24.071260 30.610844 31.812137
101   1  0.8200 26.303050 31.419530 40.337900
102   1  0.8200 28.534840 32.228216 48.863663
103   1  0.8200 17.802990 33.873513  6.234848
104   1  0.8200 20.034780 34.682199 14.760611
105   1  0.8200 22.266570 35.490885 23.286374
106   1  0.8200 24.498360 36.299571 31.812137
107   1  0.8200 26.730150 37.108257 40.337900
108   1  0.8200 28.961940 37.916943 48.863663
109   1  0.8200 21.187681  5.429878  6.234848
110   1  0.8200 23.419471  6.238564 14.760611
111   1  0.8200 25.651261  7.047250 23.286374
112   1  0.8200 27.883051  7.855936 31.812137
113   1  0.8200 30.114841  8.664622 40.337900
114   1  0.8200 32.346631  9.473308 48.863663
115   1  0.8200 21.614781 11.118605  6.234848
116   1  0.8200 23.846571 11.927291 14.760611
117   1  0.8200 26.078361 12.735977 23.286374
118   1  0.8200 28.310151 13.544663 31.812137
119   1  0.8200 30.541941 14.353349 40.337900
120   1  0.8200 32.773731 15.162035 48.863663
121   1  0.8200 22.041881 16.807332  6.234848
122   1  0.8200 24.273671 17.616018 14.760611
123   1  0.8200 26.505461 18.424704 23.286374
124   1  0.8200 28.737251 19.233390 31.812137
125   1  0.8200 30.969041 20.042076 40.337900
126   1  0.8200 33.200831 20.850762 48.863663
127   1  0.8200 22.468981 22.496059  6.234848
128   1  0.8200 24.700771 23.304745 14.760611
129   1  0.8200 26.932561 24.113431 23.286374
130   1  0.8200 29.164351 24.922117 31.812137
131   1  0.8200 31.396141 25.730803 40.337900
132   1  0.8200 33.627931 26.539489 48.863663
133   1  0.8200 22.896081 28.184786  6.234848
134   1  0.8200 25.127871 28.993472 14.760611
135   1  0.8200 27.359661 29.802158 23.286374
136   1  0.8200 29.591451 30.610844 31.812137
137   1  0.8200 31.823241 31.419530 40.337900
138   1  0.8200 34.055031 32.228216 48.863663
139   1  0.8200 23.323181 33.873513  6.234848
140   1  0.8200 25.554971 34.682199 14.760611
141   1  0.8200 27.786761 35.490885 23.286374
142   1  0.8200 30.018551 36.299571 31.812137
143   1  0.8200 32.250341 37.108257 40.337900
144   1  0.8200 34.482131 37.916943 48.863663
145   1  0.8200 26.707872  5.429878  6.234848
146   1  0.8200 28.939662  6.238564 14.760611
147   1  0.8200 31.171452  7.047250 23.286374
148   1  0.8200 33.403242  7.855936 31.812137
149   1  0.8200 35.635032  8.664622 40.337900
150   1  0.8200 37.866822  9.473308 48.863663
151   1  0.8200 27.134972 11.118605  6.234848
152   1  0.8200 29.366762 11.927291 14.760611
153   1  0.8200 31.598552 12.735977 23.286374
154   1  0.8200 33.830342 13.544663 31.812137
155   1  0.8200 36.062132 14.353349 40.337900
156   1  0.8200 38.293922 15.162035 48.863663
157   1  0.8200 27.562072 16.807332  6.234848
158   1  0.8200 29.793862 17.616018 14.760611
159   1  0.8200 32.025652 18.424704 23.286374
160   1  0.8200 34.257442 19.233390 31.812137
161   1  0.8200 36.489232 20.042076 40.337900
162   1  0.8200 38.721022 20.850762 48.863663
163   1  0.8200 27.989172 22.496059  6.234848
164   1  0.8200 30.220962 23.304745 14.760611
165   1  0.8200 32.452752 24.113431 23.286374
166   1  0.8200 34.684542 24.922117 31.812137
167   1  0.8200 36.916332 25.730803 40.337900
168   1  0.8200 39.148122 26.539489 48.863663
169   1  0.8200 28.416272 28.184786  6.234848
170   1  0.8200 30.648062 28.993472 14.760611
171   1  0.8200 32.879852 29.802158 23.286374
172   1  0.8200 35.111642 30.610844 31.812137
173   1  0.8200 37.343432 31.419530 40.337900
174   1  0.8200 39.575222 32.228216 48.863663
175   1  0.8200 28.843372 33.873513  6.234848
176   1  0.8200 31.075162 34.682199 14.760611
177   1  0.8200 33.306952 35.490885 23.286374
178   1  0.8200 35.538742 36.299571 31.812137
179   1  0.8200 37.770532 37.108257 40.337900
180   1  0.8200 40.002322 37.916943 48.863663
181   1  0.8200 32.228063  5.429878  6.234848
182   1  0.8200 34.459853  6.238564 14.760611
183   1  0.8200 36.691643  7.047250 23.286374
184   1  0.8200 38.923433  7.855936 31.812137
185   1  0.8200 41.155223  8.664622 40.337900
186   1  0.8200 43.387013  9.473308 48.863663
187   1  0.8200 32.655163 11.118605  6.234848
188   1  0.8200 34.886953 11.927291 14.760611
189   1  0.8200 37.118743 12.735977 23.286374
190   1  0.8200 39.350533 13.544663 31.812137
191   1  0.8200 41.582323 14.353349 40.337900
192   1  0.8200 43.814113 15.162035 48.863663
193   1  0.8200 33.082263 16.807332  6.234848
194   1  0.8200 35.314053 17.616018 14.760611
195   1  0.8200 37.545843 18.424704 23.286374
196   1  0.8200 39.777633 19.233390 31.812137
197   1  0.8200 42.009423 20.042076 40.337900
198   1  0.8200 44.241213 20.850762 48.863663
199   1  0.8200 33.509363 22.496059  6.234848
200   1  0.8200 35.741153 23.304745 14.760611
201   1  0.8200 37.972943 24.113431 23.286374
202   1  0.8200 40.204733 24.922117 31.812137
203   1  0.8200 42.436523 25.730803 40.337900
204   1  0.8200 44.668313 26.539489 48.863663
205   1  0.8200 33.936463 28.184786  6.234848
206   1  0.8200 36.168253 28.993472 14.760611
207   1  0.8200 38.400043 29.802158 23.286374
208   1  0.8200 40.631833 30.610844 31.812137
209   1  0.8200 42.863623 31.419530 40.337900
210   1  0.8200 45.095413 32.228216 48.863663
211   1  0.8200 34.363563 33.873513  6.234848
212   1  0.8200 36.595353 34.682199 14.760611
213   1  0.8200 38.827143 35.490885 23.286374
214   1  0.8200 41.058933 36.299571 31.812137
215   1  0.8200 43.290723 37.108257 40.337900
216   1  0.8200 45.522513 37.916943 48.863663
217   1  0.8200  3.551973  1.067535  2.290915
218   1  0.8200  5.783763  1.876221 10.816678
219   1  0.8200  8.015553  2.684907 19.342441
220   1  0.8200 10.247343  3.493593 27.868204
221   1  0.8200 12.479133  4.302279 36.393967
222   1  0.8200 14.710923  5.110965 44.919730
223   1  0.8200  3.979073  6.756262  2.290915
224   1  0.8200  6.210863  7.564948 10.816678
225   1  0.8200  8.442653  8.373634 19.342441
226   1  0.8200 10.674443  9.182320 27.868204
227   1  0.8200 12.906233  9.991006 36.393967
228   1  0.8200 15.138023 10.799692 44.919730
229   1  0.8200  4.406173 12.444989  2.290915
230   1  0.8200  6.637963 13.253675 10.816678
231   1  0.8200  8.869753 14.062361 19.342441
232   1  0.8200 11.101543 14.871047 27.868204
233   1  0.8200 13.333333 15.679733 36.393967
234   1  0.8200 15.565123 16.488419 44.919730
235   1  0.8200  4.833273 18.133716  2.290915
236   1  0.8200  7.065063 18.942402 10.816678
237   1  0.8200  9.296853 19.751088 19.342441
238   1  0.8200 11.528643 20.559774 27.868204
239   1  0.8200 13.760433 21.368460 36.393967
240   1  0.8200 15.992223 22.177146 44.919730
241   1  0.8200  5.260373 23.822443  2.290915
242   1  0.8200  7.492163 24.631129 10.816678
243   1  0.8200  9.723953 25.439815 19.342441
244   1  0.8200 11.955743 26.248501 27.868204
245   1  0.8200 14.187533 27.057187 36.393967
246   1  0.8200 16.419323 27.865873 44.919730
247   1  0.8200  5.687473 29.511170  2.290915
248   1  0.8200  7.919263 30.319856 10.816678
249   1  0.8200 10.151053 31.128542 19.342441
250   1  0.8200 12.382843 31.937228 27.868204
251   1  0.8200 14.614633 32.745914 36.393967
252   1  0.8200 16.846423 33.554600 44.919730
253   1  0.8200  9.072164  1.067535  2.290915
254   1  0.8200 11.303954  1.876221 10.816678
255   1  0.8200 13.535744  2.684907 19.342441
256   1  0.8200 15.767534  3.493593 27.868204
257   1  0.8200 17.999324  4.302279 36.393967
258   1  0.8200 20.231114  5.110965 44.919730
259   1  0.8200  9.499264  6.756262  2.290915
260   1  0.8200 11.731054  7.564948 10.816678
261   1  0.8200 13.962844  8.373634 19.342441
262   1  0.8200 16.194634  9.182320 27.868204
263   1  0.8200 18.426424  9.991006 36.393967
264   1  0.8200 20.658214 10.799692 44.919730
265   1  0.8200  9.926364 12.444989  2.290915
266   1  0.8200 12.158154 13.253675 10.816678
267   1  0.8200 14.389944 14.062361 19.342441
268   1  0.8200 16.621734 14.871047 27.868204
269   1  0.8200 18.853524 15.679733 36.393967
270   1  0.8200 21.085314 16.488419 44.919730
271   1  0.8200 10.353464 18.133716  2.290915
272   1  0.8200 12.585254 18.942402 10.816678
273   1  0.8200 14.817044 19.751088 19.342441
274   1  0.8200 17.048834 20.559774 27.868204
275   1  0.8200 19.280624 21.368460 36.393967
276   1  0.8200 21.512414 22.177146 44.919730
277   1  0.8200 10.780564 23.822443  2.290915
278   1  0.8200 13.012354 24.631129 10.816678
279   1  0.8200 15.244144 25.439815 19.342441
280   1  0.8200 17.475934 26.248501 27.868204
281   1  0.8200 19.707724 27.057187 36.393967
282   1  0.8200 21.939514 27.865873 44.919730
283   1  0.8200 11.207664 29.511170  2.290915
284   1  0.8200 13.439454 30.319856 10.816678
285   1  0.8200 15.671244 31.128542 19.342441
286   1  0.8200 17.903034 31.937228 27.868204
287   1  0.8200 20.134824 32.745914 36.393967
288   1  0.8200 22.366614 33.554600 44.919730
289   1  0.8200 14.592355  1.067535  2.290915
290   1  0.8200 16.824145  1.876221 10.816678
291   1  0.8200 19.055935  2.684907 19.342441
292   1  0.8200 21.287725  3.493593 27.868204
293   1  0.8200 23.519515  4.302279 36.393967
294   1  0.8200 25.751305  5.110965 44.919730
295   1  0.8200 15.019455  6.756262  2.290915
296   1  0.8200 17.251245  7.564948 10.816678
297   1  0.8200 19.483035  8.373634 19.342441
298   1  0.8200 21.714825  9.182320 27.868204
299   1  0.8200 23.946615  9.991006 36.393967
300   1  0.8200 26.178405 10.799692 44.919730
301   1  0.8200 15.446555 12.444989  2.290915
302   1  0.8200 17.678345 13.253675 10.816678
303   1  0.8200 19.910135 14.062361 19.342441
304   1  0.8200 22.141925 14.871047 27.868204
305   1  0.8200 24.373715 15.679733 36.393967
306   1  0.8200 26.605505 16.488419 44.919730
307   1  0.8200 15.873655 18.133716  2.290915
308   1  0.8200 18.105445 18.942402 10.816678
309   1  0.8200 20.337235 19.751088 19.342441
310   1  0.8200 22.569025 20.559774 27.868204
311   1  0.8200 24.800815 21.368460 36.393967
312   1  0.8200 27.032605 22.177146 44.919730
313   1  0.8200 16.300755 23.822443  2.290915
314   1  0.8200 18.532545 24.631129 10.816678
315   1  0.8200 20.764335 25.439815 19.342441
316   1  0.8200 22.996125 26.248501 27.868204
317   1  0.8200 25.227915 27.057187 36.393967
318   1  0.8200 27.459705 27.865873 44.919730
319   1  0.8200 16.727855 29.511170  2.290915
320   1  0.8200 18.959645 30.319856 10.816678
321   1  0.8200 21.191435 31.128542 19.342441
322   1  0.8200 23.423225 31.937228 27.868204
323   1  0.8200 25.655015 32.745914 36.393967
324   1  0.8200 27.886805 33.554600 44.919730
325   1  0.8200 20.112546  1.067535  2.290915
326   1  0.8200 22.344336  1.876221 10.816678
327   1  0.8200 24.576126  2.684907 19.342441
328   1  0.8200 26.807916  3.493593 27.868204
329   1  0.8200 29.039706  4.302279 36.393967
330   1  0.8200 31.271496  5.110965 44.919730
331   1  0.8200 20.539646  6.756262  2.290915
332   1  0.8200 22.771436  7.564948 10.816678
333   1  0.8200 25.003226  8.373634 19.342441
334   1  0.8200 27.235016  9.182320 27.868204
335   1  0.8200 29.466806  9.991006 36.393967
336   1  0.8200 31.698596 10.799692 44.919730
337   1  0.8200 20.966746 12.444989  2.290915
338   1  0.8200 23.198536 13.253675 10.816678
339   1  0.8200 25.430326 14.062361 19.342441
340   1  0.8200 27.662116 14.871047 27.868204
341   1  0.8200 29.893906 15.679733 36.393967
342   1  0.8200 32.125696 16.488419 44.919730
343   1  0.8200 21.393846 18.133716  2.290915
344   1  0.8200 23.625636 18.942402 10.816678
345   1  0.8200 25.857426 19.751088 19.342441
346   1  0.8200 28.089216 20.559774 27.868204
347   1  0.8200 30.321006 21.368460 36.393967
348   1  0.8200 32.552796 22.177146 44.919730
349   1  0.8200 21.820946 23.822443  2.290915
350   1  0.8200 24.052736 24.631129 10.816678
351   1  0.8200 26.284526 25.439815 19.342441
352   1  0.8200 28.516316 26.248501 27.868204
353   1  0.8200 30.748106 27.057187 36.393967
354   1  0.8200 32.979896 27.865873 44.919730
355   1  0.8200 22.248046 29.511170  2.290915
356   1  0.8200 24.479836 30.319856 10.816678
357   1  0.8200 26.711626 31.128542 19.342441
358   1  0.8200 28.943416 31.937228 27.868204
359   1  0.8200 31.175206 32.745914 36.393967
360   1  0.8200 33.406996 33.554600 44.919730
361   1  0.8200 25.632737  1.067535  2.290915
362   1  0.8200 27.864527  1.876221 10.816678
363   1  0.8200 30.096317  2.684907 19.342441
364   1  0.8200 32.328107  3.493593 27.868204
365   1  0.8200 34.559897  4.302279 36.393967
366   1  0.8200 36.791687  5.110965 44.919730
367   1  0.8200 26.059837  6.756262  2.290915
368   1  0.8200 28.291627  7.564948 10.816678
369   1  0.8200 30.523417  8.373634 19.342441
370   1  0.8200 32.755207  9.182320 27.868204
371   1  0.8200 34.986997  9.991006 36.393967
372   1  0.8200 37.218787 10.799692 44.919730
373   1  0.8200 26.486937 12.444989  2.290915
374   1  0.8200 28.718727 13.253675 10.816678
375   1  0.8200 30.950517 14.062361 19.342441
376   1  0.8200 33.182307 14.871047 27.868204
377   1  0.8200 35.414097 15.679733 36.393967
378   1  0.8200 37.645887 16.488419 44.919730
379   1  0.8200 26.914037 18.133716  2.290915
380   1  0.8200 29.145827 18.942402 10.816678
381   1  0.8200 31.377617 19.751088 19.342441
382   1  0.8200 33.609407 20.559774 27.868204
383   1  0.8200 35.841197 21.368460 36.393967
384   1  0.8200 38.072987 22.177146 44.919730
385   1  0.8200 27.341137 23.822443  2.290915
386   1  0.8200 29.572927 24.631129 10.816678
387   1  0.8200 31.804717 25.439815 19.342441
388   1  0.8200 34.036507 26.248501 27.868204
389   1  0.8200 36.268297 27.057187 36.393967
390   1  0.8200 38.500087 27.865873 44.919730
391   1  0.8200 27.768237 29.511170  2.290915
392   1  0.8200 30.000027 30.319856 10.816678
393   1  0.8200 32.231817 31.128542 19.342441
394   1  0.8200 34.463607 31.937228 27.868204
395   1  0.8200 36.695397 32.745914 36.393967
396   1  0.8200 38.927187 33.554600 44.919730
397   1  0.8200 31.152928  1.067535  2.290915
398   1  0.8200 33.384718  1.876221 10.816678
399   1  0.8200 35.616508  2.684907 19.342441
400   1  0.8200 37.848298  3.493593 27.868204
401   1  0.8200 40.080088  4.302279 36.393967
402   1  0.8200 42.311878  5.110965 44.919730
403   1  0.8200 31.580028  6.756262  2.290915
404   1  0.8200 33.811818  7.564948 10.816678
405   1  0.8200 36.043608  8.373634 19.342441
406   1  0.8200 38.275398  9.182320 27.868204
407   1  0.8200 40.507188  9.991006 36.393967
408   1  0.8200 42.738978 10.799692 44.919730
409   1  0.8200 32.007128 12.444989  2.290915
410   1  0.8200 34.238918 13.253675 10.816678
411   1  0.8200 36.470708 14.062361 19.342441
412   1  0.8200 38.702498 14.871047 27.868204
413   1  0.8200 40.934288 15.679733 36.393967
414   1  0.8200 43.166078 16.488419 44.919730
415   1  0.8200 32.434228 18.133716  2.290915
416   1  0.8200 34.666018 18.942402 10.816678
417   1  0.8200 36.897808 19.751088 19.342441
418   1  0.8200 39.129598 20.559774 27.868204
419   1  0.8200 41.361388 21.368460 36.393967
420   1  0.8200 43.593178 22.177146 44.919730
421   1  0.8200 32.861328 23.822443  2.290915
422   1  0.8200 35.093118 24.631129 10.816678
423   1  0.8200 37.324908 25.439815 19.342441
424   1  0.8200 39.556698 26.248501 27.868204
425   1  0.8200 41.788488 27.057187 36.393967
426   1  0.8200 44.020278 27.865873 44.919730
427   1  0.8200 33.288428 29.511170  2.290915
428   1  0.8200 35.520218 30.319856 10.816678
429   1  0.8200 37.752008 31.128542 19.342441
430   1  0.8200 39.983798 31.937228 27.868204
431   1  0.8200 42.215588 32.745914 36.393967
432   1  0.8200 44.447378 33.554600 44.919730
433   1  0.8200  4.723909  4.158405  0.153020
434   1  0.8200  6.955699  4.967091  8.678783
435   1  0.8200  9.187489  5.775777 17.204546
436   1  0.8200 11.419279  6.584463 25.730309
437   1  0.8200 13.651069  7.393149 34.256072
438   1  0.8200 15.882859  8.201835 42.781835
439   1  0.8200  5.151009  9.847132  0.153020
440   1  0.8200  7.382799 10.655818  8.678783
441   1  0.8200  9.614589 11.464504 17.204546
442   1  0.8200 11.846379 12.273190 25.730309
443   1  0.8200 14.078169 13.081876 34.256072
444   1  0.8200 16.309959 13.890562 42.781835
445   1  0.8200  5.578109 15.535859  0.153020
446   1  0.8200  7.809899 16.344545  8.678783
447   1  0.8200 10.041689 17.153231 17.204546
448   1  0.8200 12.273479 17.961917 25.730309
449   1  0.8200 14.505269 18.770603 34.256072
450   1  0.8200 16.737059 19.579289 42.781835
451   1  0.8200  6.005209 21.224586  0.153020
452   1  0.8200  8.236999 22.033272  8.678783
453   1  0.8200 10.468789 22.841958 17.204546
454   1  0.8200 12.700579 23.650644 25.730309
455   1  0.8200 14.932369 24.459330 34.256072
456   1  0.8200 17.164159 25.268016 42.781835
457   1  0.8200  6.432309 26.913313  0.153020
458   1  0.8200  8.664099 27.721999  8.678783
459   1  0.8200 10.895889 28.530685 17.204546
460   1  0.8200 13.127679 29.339371 25.730309
461   1  0.8200 15.359469 30.148057 34.256072
462   1  0.8200 17.591259 30.956743 42.781835
463   1  0.8200  6.859409 32.602040  0.153020
464   1  0.8200  9.091199 33.410726  8.678783
465   1  0.8200 11.322989 34.219412 17.204546
466   1  0.8200 13.554779 35.028098 25.730309
467   1  0.8200 15.786569 35.836784 34.256072
468   1  0.8200 18.018359 36.645470 42.781835
469   1  0.8200 10.244100  4.158405  0.153020
470   1  0.8200 12.475890  4.967091  8.678783
471   1  0.8200 14.707680  5.775777 17.204546
472   1  0.8200 16.939470  6.584463 25.730309
473   1  0.8200 19.171260  7.393149 34.256072
474   1  0.8200 21.403050  8.201835 42.781835
475   1  0.8200 10.671200  9.847132  0.153020
476   1  0.8200 12.902990 10.655818  8.678783
477   1  0.8200 15.134780 11.464504 17.204546
478   1  0.8200 17.366570 12.273190 25.730309
479   1  0.8200 19.598360 13.081876 34.256072
480   1  0.8200 21.830150 13.890562 42.781835
481   1  0.8200 11.098300 15.535859  0.153020
482   1  0.8200 13.330090 16.344545  8.678783
483   1  0.8200 15.561880 17.153231 17.204546
484   1  0.8200 17.793670 17.961917 25.730309
485   1  0.8200 20.025460 18.770603 34.256072
486   1  0.8200 22.257250 19.579289 42.781835
487   1  0.8200 11.525400 21.224586  0.153020
488   1  0.8200 13.757190 22.033272  8.678783
489   1  0.8200 15.988980 22.841958 17.204546
490   1  0.8200 18.220770 23.650644 25.730309
491   1  0.8200 20.452560 24.459330 34.256072
492   1  0.8200 22.684350 25.268016 42.781835
493   1  0.8200 11.952500 26.913313  0.153020
494   1  0.8200 14.184290 27.721999  8.678783
495   1  0.8200 16.416080 28.530685 17.204546
496   1  0.8200 18.647870 29.339371 25.730309
497   1  0.8200 20.879660 30.148057 34.256072
498   1  0.8200 23.111450 30.956743 42.781835
499   1  0.8200 12.379600 32.602040  0.153020
500   1  0.8200 14.611390 33.410726  8.678783
501   1  0.8200 16.843180 34.219412 17.204546
502   1  0.8200 19.074970 35.028098 25.730309
503   1  0.8200 21.306760 35.836784 34.256072
504   1  0.8200 23.538550 36.645470 42.781835
505   1  0.8200 15.764291  4.158405  0.153020
506   1  0.8200 17.996081  4.967091  8.678783
507   1  0.8200 20.227871  5.775777 17.204546
508   1  0.8200 22.459661  6.584463 25.730309
509   1  0.8200 24.691451  7.393149 34.256072
510   1  0.8200 26.923241  8.201835 42.781835
511   1  0.8200 16.191391  9.847132  0.153020
512   1  0.8200 18.423181 10.655818  8.678783
513   1  0.8200 20.654971 11.464504 17.204546
514   1  0.8200 22.886761 12.273190 25.730309
515   1  0.8200 25.118551 13.081876 34.256072
516   1  0.8200 27.350341 13.890562 42.781835
517   1  0.8200 16.618491 15.535859  0.153020
518   1  0.8200 18.850281 16.344545  8.678783
519   1  0.8200 21.082071 17.153231 17.204546
520   1  0.8200 23.313861 17.961917 25.730309
521   1  0.8200 25.545651 18.770603 34.256072
522   1  0.8200 27.777441 19.579289 42.781835
523   1  0.8200 17.045591 21.224586  0.153020
524   1  0.8200 19.277381 22.033272  8.678783
525   1  0.8200 21.509171 22.841958 17.204546
526   1  0.8200 23.740961 23.650644 25.730309
527   1  0.8200 25.972751 24.459330 34.256072
528   1  0.8200 28.204541 25.268016 42.781835
529   1  0.8200 17.472691 26.913313  0.153020
530   1  0.8200 19.704481 27.721999  8.678783
531   1  0.8200 21.936271 28.530685 17.204546
532   1  0.8200 24.168061 29.339371 25.730309
533   1  0.8200 26.399851 30.148057 34.256072
534   1  0.8200 28.631641 30.956743 42.781835
535   1  0.8200 17.899791 32.602040  0.153020
536   1  0.8200 20.131581 33.410726  8.678783
537   1  0.8200 22.363371 34.219412 17.204546
538   1  0.8200 24.595161 35.028098 25.730309
539   1  0.8200 26.826951 35.836784 34.256072
540   1  0.8200 29.058741 36.645470 42.781835
541   1  0.8200 21.284482  4.158405  0.153020
542   1  0.8200 23.516272  4.967091  8.678783
543   1  0.8200 25.748062  5.775777 17.204546
544   1  0.8200 27.979852  6.584463 25.730309
545   1  0.8200 30.211642  7.393149 34.256072
546   1  0.8200 32.443432  8.201835 42.781835
547   1  0.8200 21.711582  9.847132  0.153020
548   1  0.8200 23.943372 10.655818  8.678783
549   1  0.8200 26.175162 11.464504 17.204546
550   1  0.8200 28.406952 12.273190 25.730309
551   1  0.8200 30.638742 13.081876 34.256072
552   1  0.8200 32.870532 13.890562 42.781835
553   1  0.8200 22.138682 15.535859  0.153020
554   1  0.8200 24.370472 16.344545  8.678783
555   1  0.8200 26.602262 17.153231 17.204546
556   1  0.8200 28.834052 17.961917 25.730309
557   1  0.8200 31.065842 18.770603 34.256072
558   1  0.8200 33.297632 19.579289 42.781835
559   1  0.8200 22.565782 21.224586  0.153020
560   1  0.8200 24.797572 22.033272  8.678783
561   1  0.8200 27.029362 22.841958 17.204546
562   1  0.8200 29.261152 23.650644 25.730309
563   1  0.8200 31.492942 24.459330 34.256072
564   1  0.8200 33.724732 25.268016 42.781835
565   1  0.8200 22.992882 26.913313  0.153020
566   1  0.8200 25.224672 27.721999  8.678783
567   1  0.8200 27.456462 28.530685 17.204546
568   1  0.8200 29.688252 29.339371 25.730309
569   1  0.8200 31.920042 30.148057 34.256072
570   1  0.8200 34.151832 30.956743 42.781835
571   1  0.8200 23.419982 32.602040  0.153020
572   1  0.8200 25.651772 33.410726  8.678783
573   1  0.8200 27.883562 34.219412 17.204546
574   1  0.8200 30.115352 35.028098 25.730309
575   1  0.8200 32.347142 35.836784 34.256072
576   1  0.8200 34.578932 36.645470 42.781835
577   1  0.8200 26.804673  4.158405  0.153020
578   1  0.8200 29.036463  4.967091  8.678783
579   1  0.8200 31.268253  5.775777 17.204546
580   1  0.8200 33.500043  6.584463 25.730309
581   1  0.8200 35.731833  7.393149 34.256072
582   1  0.8200 37.963623  8.201835 42.781835
583   1  0.8200 27.231773  9.847132  0.153020
584   1  0.8200 29.463563 10.655818  8.678783
585   1  0.8200 31.695353 11.464504 17.204546
586   1  0.8200 33.927143 12.273190 25.730309
587   1  0.8200 36.158933 13.081876 34.256072
588   1  0.8200 38.390723 13.890562 42.781835
589   1  0.8200 27.658873 15.535859  0.153020
590   1  0.8200 29.890663 16.344545  8.678783
591   1  0.8200 32.122453 17.153231 17.204546
592   1  0.8200 34.354243 17.961917 25.730309
593   1  0.8200 36.586033 18.770603 34.256072
594   1  0.8200 38.817823 19.579289 42.781835
595   1  0.8200 28.085973 21.224586  0.153020
596   1  0.8200 30.317763 22.033272  8.678783
597   1  0.8200 32.549553 22.841958 17.204546
598   1  0.8200 34.781343 23.650644 25.730309
599   1  0.8200 37.013133 24.459330 34.256072
600   1  0.8200 39.244923 25.268016 42.781835
601   1  0.8200 28.513073 26.913313  0.153020
602   1  0.8200 30.744863 27.721999  8.678783
603   1  0.8200 32.976653 28.530685 17.204546
604   1  0.8200 35.208443 29.339371 25.730309
605   1  0.8200 37.440233 30.148057 34.256072
606   1  0.8200 39.672023 30.956743 42.781835
607   1  0.8200 28.940173 32.602040  0.153020
608   1  0.8200 31.171963 33.410726  8.678783
609   1  0.8200 33.403753 34.219412 17.204546
610   1  0.8200 35.635543 35.028098 25.730309
611   1  0.8200 37.867333 35.836784 34.256072
612   1  0.8200 40.099123 36.645470 42.781835
613   1  0.8200 32.324864  4.158405  0.153020
614   1  0.8200 34.556654  4.967091  8.678783
615   1  0.8200 36.788444  5.775777 17.204546
616   1  0.8200 39.020234  6.584463 25.730309
617   1  0.8200 41.252024  7.393149 34.256072
618   1  0.8200 43.483814  8.201835 42.781835
619   1  0.8200 32.751964  9.847132  0.153020
620   1  0.8200 34.983754 10.655818  8.678783
621   1  0.8200 37.215544 11.464504 17.204546
622   1  0.8200 39.447334 12.273190 25.730309
623   1  0.8200 41.679124 13.081876 34.256072
624   1  0.8200 43.910914 13.890562 42.781835
625   1  0.8200 33.179064 15.535859  0.153020
626   1  0.8200 35.410854 16.344545  8.678783
627   1  0.8200 37.642644 17.153231 17.204546
628   1  0.8200 39.874434 17.961917 25.730309
629   1  0.8200 42.106224 18.770603 34.256072
630   1  0.8200 44.338014 19.579289 42.781835
631   1  0.8200 33.606164 21.224586  0.153020
632   1  0.8200 35.837954 22.033272  8.678783
633   1  0.8200 38.069744 22.841958 17.204546
634   1  0.8200 40.301534 23.650644 25.730309
635   1  0.8200 42.533324 24.459330 34.256072
636   1  0.8200 44.765114 25.268016 42.781835
637   1  0.8200 34.033264 26.913313  0.153020
638   1  0.8200 36.265054 27.721999  8.678783
639   1  0.8200 38.496844 28.530685 17.204546
640   1  0.8200 40.728634 29.339371 25.730309
641   1  0.8200 42.960424 30.148057 34.256072
642   1  0.8200 45.192214 30.956743 42.781835
643   1  0.8200 34.460364 32.602040  0.153020
644   1  0.8200 36.692154 33.410726  8.678783
645   1  0.8200 38.923944 34.219412 17.204546
646   1  0.8200 41.155734 35.028098 25.730309