LAMMPS data file via write_data, version 29 Aug 2024, timestep = 172010, units = metal

3888 atoms
4 atom types

-4.185942528318941 37.307088528318616 xlo xhi
-4.313742818192422 38.44610481819317 ylo yhi
-6.46505780833929 57.6196358083387 zlo zhi
3.2103370271589338 16.775457911128992 6.078563823800272 xy xz yz

Masses

1 85.4678
2 6.941
3 28.0855
4 15.9994

Pair Coeffs # buck/coul/long

1 1388.77 0.3623 0
2 1388.77 0.3623 0
3 1388.77 0.3623 0
4 1388.77 0.3623 0

Atoms # charge

710 3 2.1 1.322719437009817 5.145515661054748 0.5016223638694346 0 1 0
2775 1 0.82 -0.5360008381124683 -0.11239520947143511 -2.03709664145692 0 0 0
3078 1 0.82 2.7576797797262813 0.34090896447413677 -0.07719293795148664 1 1 0
1926 4 -1.1975 2.682757752019148 6.673120417763247 -1.3910412409002442 0 1 1
171 4 -1.1975 0.29744993972031075 3.3254573995117207 -1.5307914046400726 1 1 0
3839 4 -1.1975 0.38224729926157863 -1.6259917590522592 0.4171718452137284 -1 2 1
3089 3 2.1 1.983452375261482 3.130190265933104 -3.6262197040638435 1 1 0
3854 4 -1.1975 -1.2655854436361023 -3.36201168878161 -3.9799566230688357 1 0 1
2976 4 -1.1975 0.011349155300186098 4.756266651156581 2.838596751058941 0 0 1
3709 4 -1.1975 1.4724250421989744 0.5538119794535854 -4.230477631037302 1 1 1
1500 4 -1.1975 3.1269049641712634 3.3312819046953477 1.1507796371832661 0 0 1
823 4 -1.1975 0.24474653558786486 3.9079328714625543 -5.484123830101634 1 -1 0
1347 2 0.525 -0.4389152662691984 1.7600501293555944 1.1402545123726653 1 0 1
1298 3 2.1 0.1711942093610963 -1.9179984895060311 3.0622136912686693 0 1 1
851 2 0.525 1.6988243298692547 -2.7533929190974726 -2.9790389984343597 -1 0 1
2676 4 -1.1975 1.7832960534562092 0.2112176340444405 3.156570983204403 -1 1 0
3222 2 0.525 3.767735665310264 -2.8534083842659315 1.9441141011260226 0 1 1
2107 1 0.82 -1.4801589201586522 5.512003652570485 -3.1590926099756773 1 -1 0
600 4 -1.1975 2.8946892595690663 7.055225917866641 2.153429010996543 0 1 0
1986 2 0.525 -2.201154515525986 -3.126969877715289 -0.7981076680280432 0 1 0
164 2 0.525 -2.0608709003191614 1.8064856505449471 -4.571003347372187 -1 1 0
2517 1 0.82 0.023044280479140866 -1.2493717486988865 -6.099404772799918 1 0 0
1495 4 -1.1975 -0.5815475177300575 6.85352625364524 -0.46350672633535916 1 0 1
594 4 -1.1975 1.8870160164703735 -3.731624096377885 -6.164345663210678 -2 0 0
2850 4 -1.1975 4.004638274593782 2.0955613756454383 -2.276845950900353 0 1 1
2968 4 -1.1975 3.9483304674224335 4.374999941975938 -4.83209347324375 -1 0 1
3264 4 -1.1975 4.407730628836228 -2.315783885628453 -1.0031934134144211 -1 2 1
2668 1 0.82 4.602713571738887 -0.5893756151052005 -3.574457301464284 0 1 0
1132 1 0.82 4.772126061175872 1.1781804240028686 2.8907711787766566 1 0 0
2913 1 0.82 5.152076953421034 4.887549263260226 -1.3852102266280153 0 1 0
2096 1 0.82 5.076075379878452 5.069844442497066 2.625820161452 0 1 0
2114 1 0.82 9.322165732310022 -2.9136353034721565 3.093163022119665 0 1 0
3611 1 0.82 6.282287119071766 1.5713376576666862 -0.4824066640480807 0 1 1
675 4 -1.1975 6.6322257596515755 -2.011084510059524 -5.513549538706544 0 -1 0
2342 2 0.525 6.624442204171254 2.498506191797638 -4.129680700721322 0 1 0
3629 2 0.525 7.398624071719972 5.838338467964276 -4.630788477271625 0 0 2
1368 4 -1.1975 6.699314659531154 -0.7688546038067536 1.70692399670216 -1 0 0
2228 4 -1.1975 7.585282952364906 -0.6098836396161729 -2.3046852513746408 -1 0 0
3022 4 -1.1975 11.423496750572392 -1.9861961963281285 -2.742701801716469 1 1 1
1685 4 -1.1975 8.184739670233045 4.292365373930535 -1.4035199511600855 -1 0 1
2288 1 0.82 8.816100154712508 0.8783730805733327 3.5691393494363255 1 0 0
39 3 2.1 8.8326680906407 -2.457574554054211 -4.006917388920319 -1 0 0
2031 4 -1.1975 7.232471997205492 3.02030855897541 1.9354168542022057 0 1 0
3237 3 2.1 9.04066711490521 4.800997327740058 1.2074908632680945 0 1 1
1482 4 -1.1975 10.664220879075343 6.877942601961626 0.5185314578278654 -1 0 1
804 4 -1.1975 10.358372493217045 -0.8995561169071378 -5.70070956592309 0 0 0
1283 2 0.525 11.009634399642215 5.642738108079763 -2.353191501783933 0 1 1
3485 4 -1.1975 11.237243372611106 3.085267525142223 1.4529300581980964 0 1 0
3602 2 0.525 9.508707583521089 0.6784764938286676 0.12582831601477454 0 1 1
3464 4 -1.1975 11.530889428603734 -0.6351414962158364 2.42730343108339 1 1 0
178 3 2.1 6.95935964450306 -2.5235667187333264 -0.2507104174880195 -1 0 0
2806 4 -1.1975 9.531024839104127 -2.7133487886075693 0.004638135180158773 0 1 0
285 2 0.525 9.723842749324154 1.5319425176137393 -3.3759368199133997 0 1 -1
2764 4 -1.1975 9.193350197254507 5.456072869483654 3.8024045329409666 1 1 1
1932 1 0.82 11.419800298924061 5.296270233121897 -5.5889354294029525 1 0 1
2161 4 -1.1975 6.612322910372564 7.140873907272756 1.118087175912562 0 0 0
3077 3 2.1 12.129555829672013 -2.481479405680404 0.055561893290318846 0 1 0
3509 4 -1.1975 12.270442427067684 3.067173795151641 -3.439391728508284 -1 1 1
2290 2 0.525 12.643011087633232 0.9012842914933099 -1.2752608839312307 0 0 0
3066 3 2.1 12.861219655168336 -1.6268313010397808 -5.104495036420506 -1 1 1
2051 3 2.1 12.989783447257283 1.467583565005655 3.180173072719763 1 1 -1
323 4 -1.1975 14.206175997837663 6.412883076986077 -2.9162716106556545 -2 0 1
693 1 0.82 13.472985233261879 4.240025920021134 -0.5538006942668006 0 -1 0
3837 4 -1.1975 14.469017031465766 -1.2927855691164587 0.2691632462051036 0 1 1
124 1 0.82 12.41083297625754 5.310586164670214 3.3169341351364694 -1 -1 1
1787 4 -1.1975 14.677447555753263 -0.5536855457884995 -3.4918862359905005 -1 1 1
919 4 -1.1975 14.89029637282705 2.20005478070731 1.4950418378842543 0 0 1
2198 1 0.82 14.773200650117401 2.5345901927434307 -4.888350447435024 -1 1 0
23 2 0.525 15.966177170943032 1.7509234113954228 -1.5431902764917251 -1 -1 1
915 4 -1.1975 15.208929526177938 5.92316720517039 1.7382023276199836 -2 0 1
2835 4 -1.1975 15.727478241496465 -3.170963052741011 -5.425970595890183 -1 1 1
1222 4 -1.1975 19.413190775464557 -2.429827777209927 -5.4678936361315085 1 -1 0
3738 3 2.1 16.019046217951868 -2.3228793617626193 -1.7539731533224294 0 1 1
1708 2 0.525 18.623847302149308 0.33532128695206254 0.11472847168610284 1 0 1
1349 1 0.82 16.327439794844942 -0.5662376384956418 2.7013323433426213 0 -1 1
2387 4 -1.1975 17.875743665598243 -0.7557836735698573 -2.903441998712628 -1 -1 1
1548 4 -1.1975 17.12283544572859 4.035049709682221 -3.5328490520262634 1 -1 1
267 3 2.1 19.505857255136263 3.4649798807023844 -2.4009833312197286 0 1 0
1423 3 2.1 16.748481253177573 3.652193080121168 2.6688796354999553 1 0 0
2241 3 2.1 17.009483248970298 -0.46175581579342495 -5.765410152199069 0 1 0
806 4 -1.1975 18.24280437292903 3.585992950324175 0.23631952248141275 0 0 0
221 3 2.1 16.06744929901329 6.2544131998661125 -4.950674211614436 1 0 0
980 1 0.82 16.671910854285876 6.077023207440467 -1.1002030246261292 0 0 1
96 4 -1.1975 17.75308971386888 -2.612969133303274 0.6013824627887341 0 -1 0
872 4 -1.1975 18.513324208545257 1.7293392408627009 3.388779144042324 -1 0 0
2541 4 -1.1975 19.675397596402327 6.088246603628756 -1.6969193837451682 1 0 0
3302 4 -1.1975 18.707320909563144 5.99639873422147 -5.8345858932090575 -1 0 1
2866 4 -1.1975 19.720913991566817 1.4937326306175853 -4.412192371990972 0 0 0
147 3 2.1 20.000112725604566 3.2159787134240547 -6.363135932318623 0 0 0
2621 1 0.82 19.907012881986574 6.056473396550169 1.3077252894771874 1 0 1
2301 2 0.525 19.917522869884948 -1.2794963626883398 3.0614187107313775 0 1 0
2095 4 -1.1975 18.279626445720552 5.466183733103 4.018524608777621 0 1 0
2283 4 -1.1975 21.046553658119016 -2.726122072174964 -1.64387967114476 0 1 0
1337 4 -1.1975 21.388321005394438 4.501590324552044 -4.361343703899168 0 0 1
2186 3 2.1 20.50245813428556 -0.8914854358281308 -3.44614941429521 0 0 0
333 4 -1.1975 22.59683289771749 5.314880135914265 2.1142750648250006 0 -1 0
2349 4 -1.1975 21.179681810255516 1.5349418561746146 -1.4159794285508684 0 1 1
1529 1 0.82 23.366045465390563 1.9442420060660206 -4.211434469034728 -1 0 1
34 2 0.525 22.262985792998528 -0.9604823312973356 0.5155905775811686 -1 0 0
3339 4 -1.1975 22.88529122694021 -1.2499337231013898 -4.6315156013478465 1 1 0
2970 4 -1.1975 23.108664758187906 0.9677989277445329 3.3124207959739134 0 2 0
2620 1 0.82 21.08869914742091 2.5699366909562764 1.640029641465592 0 1 0
2707 2 0.525 22.95319068364435 5.209669871536077 -1.0713444211030296 -1 0 1
2508 1 0.82 24.17370976503097 5.8039667412267 -4.360095898212045 0 1 0
3519 1 0.82 24.08983211799866 -1.8379196886958775 3.346308683388852 0 0 1
3536 2 0.525 24.156365746913508 1.7308533320946573 -0.31361901288223437 0 0 1
3197 1 0.82 25.053967535397 -2.246213396289282 -2.7541459193938023 0 2 0
3117 1 0.82 24.799087687542418 3.567589658016473 3.375053468975253 -1 1 1
2047 2 0.525 26.887056180731022 0.7326444807379202 -2.342750615586379 0 0 0
3836 4 -1.1975 25.326219912372224 3.6180230448297532 -2.641866222306648 0 0 1
1974 4 -1.1975 26.41976751281465 3.429501590584084 0.8697262902768275 0 0 0
1172 1 0.82 27.60298565075602 3.4267992464255803 -4.655170791057118 -1 1 1
544 4 -1.1975 25.436154025175057 -1.3944033286063888 0.1285443227411205 0 0 0
1329 2 0.525 26.621966049861975 0.5888824584365109 2.2047341272893846 -1 0 1
3136 4 -1.1975 27.608246777447818 6.397570598138909 -3.626850005403874 1 1 1
960 3 2.1 27.155533818784903 4.975062990541973 -1.147031955655438 0 0 0
817 4 -1.1975 26.00930934410181 0.6143815990091621 -5.73527999098713 0 0 0
3365 4 -1.1975 26.62671077204665 -3.2991906446694785 -5.17145237299829 0 0 1
3547 2 0.525 26.12771709813515 6.4922057795303125 2.4572055179000576 -1 0 1
3163 3 2.1 27.323406699894697 7.434801098774431 -6.096843991998702 0 0 0
2456 1 0.82 27.70325620052334 -3.086420663757662 1.0508819291556586 0 1 0
1026 3 2.1 28.108963467567918 -1.15897486571706 -6.335591133533409 -1 0 1
3235 4 -1.1975 25.653309990218894 7.293012848252657 -0.6403652402381615 -2 0 1
655 1 0.82 32.33686944206273 -3.5415602832548476 -6.414103641487013 0 0 1
1212 4 -1.1975 29.053078065951944 -1.3090667206635538 -3.7786964539517247 -1 0 0
3805 4 -1.1975 29.18302719593631 3.0725449471559516 -1.787705516199983 -1 0 1
2838 1 0.82 29.65076761782398 0.003554332776893432 -0.31635425028681985 0 1 0
1979 4 -1.1975 32.744217284175186 0.327397193885945 -0.9512308039744775 0 1 0
923 4 -1.1975 29.47557385468381 -0.9025715119575759 2.9439154805026146 1 0 0
3304 4 -1.1975 32.23063667674189 4.701015479974634 2.167671807373479 0 1 0
259 4 -1.1975 33.64118171330392 3.5019056342820853 -4.164458893017207 1 0 0
3847 2 0.525 30.984398975725057 1.3750400397529932 -3.810636563853322 0 0 1
912 2 0.525 32.517470875387204 -2.1292851041511023 0.9719519420338693 1 -1 -1
1420 1 0.82 32.27190645593124 3.3684322108978115 -0.8990504663783775 1 -1 0
2113 1 0.82 32.01965763197402 -1.9299157633576 -2.91954611938198 1 0 0
2568 2 0.525 30.794239680854133 5.303450704510215 -3.8715686633817863 -1 0 0
2637 2 0.525 29.332992350893562 3.3368271605582143 1.8338576557050865 0 0 0
360 4 -1.1975 32.9180935698995 6.473470273438432 -1.5010598012401764 -1 -1 1
346 2 0.525 32.37963985593503 1.0621833762191368 2.617276305107963 1 1 0
3733 1 0.82 35.27319711827497 6.9020003995365204 1.5683996378264524 0 0 1
2906 4 -1.1975 34.57798098702471 -1.7977988580694895 -4.568196466831984 -1 1 0
1397 2 0.525 35.478901539687044 1.1500253990449192 0.5061236354700535 0 0 0
2116 1 0.82 35.09665198721111 1.0191692156992556 -3.0085574341144845 0 1 0
1900 3 2.1 35.17631995679465 5.570983799434613 -2.7614025656248513 0 0 1
746 4 -1.1975 35.291238203774995 -1.2141605688051191 2.5697709592201354 -1 0 1
978 2 0.525 35.36832044827261 -2.1490096412253106 -1.0233312293488237 0 1 0
1062 1 0.82 35.16487346827736 3.6836276130237104 2.757434139654072 -1 0 0
233 4 -1.1975 35.37794906161061 4.090904522037292 -0.5042670103585469 -1 0 0
595 4 -1.1975 29.96138006202431 -3.195893752734433 -0.9140611669155256 0 1 0
392 4 -1.1975 29.10905713971934 6.281615297011454 0.22159854245577823 0 -2 1
2315 3 2.1 31.544098339105403 6.989377430065105 0.633766555744036 -1 0 0
3775 4 -1.1975 34.83018909567159 7.503976489162904 -4.649207106625743 -1 0 1
945 1 0.82 35.85291102427228 2.7838877843674927 -6.131189392944856 -1 0 0
2099 3 2.1 28.77154394306772 -3.9801141225274135 -3.3217543552003104 -1 1 0
1598 1 0.82 37.721267341148 -1.7550529388373506 -4.1049769394013795 0 0 0
2636 1 0.82 38.22352869854836 -0.699901257615954 1.5676462949436354 0 0 0
2771 2 0.525 38.26297835436696 2.8253551790492972 -1.2738256385900635 -2 0 0
1353 4 -1.1975 37.34871711466234 4.438519725614112 -4.085790112316397 -1 0 1
1071 4 -1.1975 37.90423470410028 -0.20228079132037546 -1.5964224219801435 -1 0 1
1848 2 0.525 38.42224619538534 5.424955900578205 0.6875159582640257 0 0 1
993 4 -1.1975 38.040617960001356 2.468228119814187 2.2731016429330007 1 1 0
962 1 0.82 38.73707248817463 5.086633028774882 4.064238286910681 -2 2 0
3437 4 -1.1975 -0.08331854431104269 7.999661979789574 -4.334149747216991 0 1 1
76 1 0.82 -0.21084473269184478 8.116299812504915 2.424762179702608 1 0 0
3361 3 2.1 0.5372093582860211 8.82002681201595 -1.8637908383678237 0 1 1
1162 4 -1.1975 2.082943324833889 10.65662066237775 -2.8962030824306675 1 1 0
125 4 -1.1975 -0.1828484093341336 14.309898127269806 -0.9834394920096801 1 0 0
1757 2 0.525 -1.5784579899265188 10.897346551214053 -4.883875966418329 1 0 1
1578 1 0.82 0.9629500473919457 13.418463254220478 -4.052178916721451 0 0 1
2212 4 -1.1975 1.7431266135689345 9.707812094063437 0.39559543003500414 1 1 0
2080 2 0.525 2.162695259839129 15.848715134562491 1.024335284639759 0 1 0
837 1 0.82 2.6565743239672024 12.588387623440395 -0.4143951984620957 0 0 0
1276 4 -1.1975 1.0896870996579509 13.486502759732906 3.0047422525796246 1 -1 0
2770 2 0.525 2.471889399321208 10.41021936354133 3.568757544194419 0 -1 1
1450 4 -1.1975 1.6949799376963597 16.309665322198192 -5.142089470066378 1 0 1
2960 1 0.82 2.4042672341797724 16.85255051663971 -2.217892184141607 0 0 1
1233 1 0.82 -0.2752202375734054 11.676827103993046 1.2337546388455283 0 0 1
2644 1 0.82 0.32422817434344786 16.244260687044125 4.093162472800485 1 1 1
3768 4 -1.1975 3.7753559600956015 12.445791075620415 -5.752259809736711 1 0 1
3465 1 0.82 1.6968834009704405 10.26326058066459 -5.946973286354892 1 0 1
902 1 0.82 3.7093207144393325 7.740481436230478 -4.112283801390087 0 0 0
3888 4 -1.1975 -1.6192031638352855 10.436220441533887 -1.4779674728269552 1 1 1
32 2 0.525 -1.2272013408334037 16.744381838669135 -3.277865141070044 0 0 0
3784 3 2.1 11.41560098658952 17.473285419584954 -0.40753737988181765 0 0 1
3101 1 0.82 8.165490266597512 7.448540989418797 -1.6332316684136843 -1 1 0
3789 2 0.525 4.815707050645964 16.966265416045104 3.505925744989088 1 1 0
2111 2 0.525 4.231827661712565 13.525820591964985 3.190988963033988 0 1 0
3083 3 2.1 4.217620252434534 8.576568705281367 0.2661558244760259 1 0 0
3206 4 -1.1975 9.972577618312686 8.059855148810133 -4.245183346210965 0 0 1
3150 4 -1.1975 5.098560729911471 10.8611556366728 1.4308244388701534 0 1 1
2229 1 0.82 5.052080401756255 11.717035484286333 -3.0559384965895755 1 0 0
244 1 0.82 4.672926822673265 15.076173842136365 -4.519625893681465 1 0 0
1265 4 -1.1975 4.751864727278436 14.58115340659179 -1.4795889693590163 1 1 0
3140 4 -1.1975 5.637681101308248 8.916255958000509 -1.932386999786506 0 1 0
2494 1 0.82 10.006079379832558 8.331890513590414 3.4542385077303663 1 1 -1
1655 4 -1.1975 7.481170788932339 12.782270316849024 -5.00511516434952 0 -1 1
862 1 0.82 6.80318035691784 13.35491952767721 0.30110548458031505 1 0 0
2057 1 0.82 10.676281074391863 11.048714681772946 -4.58584787814273 1 -1 0
3723 2 0.525 7.195167524602704 9.612167396525036 -4.723043093761685 0 1 0
2203 2 0.525 8.117399207467146 10.048865232542079 0.8913318821867704 1 1 1
3421 3 2.1 8.74921043189607 14.453039219906563 -3.440239763013247 1 1 1
3633 1 0.82 10.77897673369229 9.804470837630475 -1.2284121502405356 -1 1 2
2368 2 0.525 7.765178577161258 16.951408878348673 1.4177806957717514 0 1 0
228 1 0.82 10.472714637181838 13.47102014018711 1.1051295591486798 1 -1 0
1665 4 -1.1975 8.110504299084914 14.130339563560947 3.0830174316159638 0 0 0
2085 4 -1.1975 11.361704638349293 10.55305142755312 1.6738539963770438 0 1 0
3724 4 -1.1975 10.912171640144805 14.029053729614757 -4.974151809471552 1 1 1
3457 4 -1.1975 9.127122044458343 12.423694977784587 -1.68604994670885 -1 1 1
1844 4 -1.1975 10.995155462045343 16.719934703243766 2.1549057019160656 0 -1 1
3307 4 -1.1975 9.207063552317168 16.13878281243776 -1.4240836457847252 1 0 1
509 4 -1.1975 7.640687271770696 16.53886560930716 -4.864544540855999 0 0 0
1017 1 0.82 11.293685798219471 16.847466911267873 -5.67687824214329 0 -1 0
1984 2 0.525 34.7293233271839 -3.0832978786882066 4.833946009788007 -1 0 0
2347 1 0.82 6.190426976937049 17.322481322119252 -1.7587370717049502 0 1 0
3637 2 0.525 6.980538315088156 11.467312305318417 4.028293727165525 2 1 0
3752 1 0.82 12.494014881554916 13.390743380320808 -2.395960485419761 0 0 1
484 4 -1.1975 17.862581983751838 14.575186547439051 -6.096463702685966 -2 0 1
2623 1 0.82 13.64584270134815 8.093721385871659 -0.41337669877553823 -1 0 1
3466 1 0.82 13.08663357382767 8.518963823837533 -4.85024505814753 0 0 1
3489 3 2.1 13.810627072985026 15.746821584204122 2.748320397805126 1 2 0
1213 4 -1.1975 13.153946277220031 14.791138172991326 0.27801604761617416 0 0 1
835 4 -1.1975 13.391481205798799 10.489266382948495 -2.4928285826529235 0 0 0
2581 2 0.525 13.724661302087659 8.740174983836903 3.05675817469271 -1 0 0
2045 1 0.82 14.004392343549364 11.967351887917426 1.0197543603732158 0 0 0
643 2 0.525 14.70742336941189 14.730237591802284 -5.0461866558646875 0 -1 1
725 3 2.1 15.175102997314967 16.15132769450193 -1.2523234660809952 0 -1 1
3071 4 -1.1975 15.620605596222306 13.607562695156405 -2.052533242646258 0 1 1
75 4 -1.1975 15.812842948816103 11.593954231916044 -5.349562712108963 0 -1 0
3592 4 -1.1975 15.868931930185314 13.864405311304568 2.879489983736844 0 0 0
3855 4 -1.1975 16.20678235982232 10.21206413153204 -0.08891555654994573 0 0 0
2341 3 2.1 16.092344904254276 10.892754744550945 -2.7624244993437546 0 1 0
2939 1 0.82 17.9225391833102 16.835344157367246 3.2905382974451483 1 1 0
1909 1 0.82 17.074504851108813 8.276637796614276 1.863655053976388 1 -1 1
1779 4 -1.1975 17.214184756300376 8.359372335222325 -3.30756974773059 0 0 1
383 4 -1.1975 18.781199082501878 11.728055982381273 -3.129360659688994 0 0 0
2377 1 0.82 17.555113198058137 13.194064735268435 0.2616228640222094 0 1 0
3725 4 -1.1975 17.499566958941564 16.317167181267905 0.1748812026422683 0 -1 1
1151 2 0.525 18.452438692852255 14.895271168048852 -2.998073164512066 -1 -1 1
2163 1 0.82 18.17022220989486 11.616847458154902 3.3697245834720504 0 0 0
794 3 2.1 18.69600951796879 12.032179672158486 -5.885402301850548 1 0 0
3553 2 0.525 19.520444217459946 9.749953568157402 -0.4875957924497181 0 0 1
1089 4 -1.1975 12.74499978743229 16.59236094488135 -2.655107782692455 -1 0 1
537 4 -1.1975 12.223884686327837 14.052040301452523 4.08368848963364 -1 0 0
549 3 2.1 19.81984523101304 7.7515798634781365 -3.8264671285754277 0 -1 0
1808 4 -1.1975 20.02490086278865 9.572313377556423 -5.764840414838966 -1 0 1
273 4 -1.1975 19.950200643599004 8.717597802372834 2.8813408531533726 0 1 0
2870 4 -1.1975 20.27477986914807 12.417287388407347 1.1732730301032444 -1 1 0
443 2 0.525 20.537838299725266 14.290889045135382 3.6067321980199405 0 0 0
2665 2 0.525 20.498341056461015 15.77572135849269 0.49357713745719634 0 0 0
2049 4 -1.1975 24.738273552145337 8.513854831261606 -6.123897761335906 0 1 0
1133 2 0.525 20.606408144371137 16.352437400270766 -5.5284085064446105 0 -1 1
95 4 -1.1975 21.47333743337039 15.99019218338706 -2.42096932171349 0 -1 0
272 2 0.525 23.260657389676446 14.330111041294794 -4.419242893569027 1 -1 0
3810 2 0.525 23.985452165028732 16.247202610582114 -0.7029310694432107 0 0 1
1124 4 -1.1975 21.936317557297343 8.599934887468724 -2.443481238115491 -1 0 0
45 1 0.82 22.784853659157 8.36775909050625 0.7169936254410268 0 0 0
463 1 0.82 21.468027845569118 12.713361040328342 -1.6273232947208354 1 0 0
2743 4 -1.1975 24.571750306363832 12.04388358103085 -2.130620283770089 1 1 0
3697 4 -1.1975 23.07790261427288 15.911045084234646 2.20224711792876 -1 -1 1
144 2 0.525 23.263570606510804 12.527206558539342 1.8133603764490849 0 1 0
2717 2 0.525 22.529715894764706 10.991282628510358 -4.518964278728484 -1 0 1
46 4 -1.1975 24.607923110249473 9.667554108582559 3.1096644831964535 0 0 0
2173 1 0.82 24.89624664779449 9.025897561015235 -3.0544360712486434 1 1 1
2088 4 -1.1975 25.42424817907571 12.78162465196755 -6.029967743002745 0 1 -1
3441 4 -1.1975 26.258288317639504 15.234400598733716 -2.986845835832447 -1 1 1
422 2 0.525 25.70335206786242 10.391537269291938 0.27606961831865773 -1 -1 0
120 3 2.1 26.87399597558327 12.593407062737933 -3.840205320010786 0 -1 0
1082 4 -1.1975 26.086292188175477 13.039597936568379 3.390880576050492 1 0 1
1721 4 -1.1975 27.770529280867272 9.95385482898346 -4.663014010113044 1 0 0
2530 1 0.82 26.123760542023618 13.813721547290095 0.08071542611928473 0 0 0
1369 4 -1.1975 26.77098296252609 16.241289887289796 1.690618826903098 0 -1 1
1480 3 2.1 25.03983082484804 15.500112438743828 4.010731721660935 0 0 0
1076 2 0.525 26.38775601608679 16.153547481254783 -6.081099431686355 0 -1 1
1131 4 -1.1975 28.212553811194276 12.317665741935615 -1.4166620789617266 -1 0 0
2797 1 0.82 28.340172423118176 8.841615217768936 -1.8326239824778356 0 -1 0
3852 1 0.82 36.88528870739955 13.609257233268695 12.792989293001382 -1 0 1
458 2 0.525 28.379291897783887 8.935160055930119 1.7148211830325124 -1 -2 0
2087 4 -1.1975 31.84409763980686 8.213637341553781 2.9388884050001907 1 0 -1
2296 1 0.82 29.646865922204526 15.354317756961064 -2.6857917580350925 -1 -1 0
2718 1 0.82 29.713762567313204 15.299895977968005 0.9506003711479707 -1 -1 1
773 2 0.525 31.220570656346517 8.5933924602044 -3.825563425963024 0 0 0
1633 4 -1.1975 31.028915443381642 9.434821829783584 -0.45066060032617616 -1 -1 1
1156 4 -1.1975 29.179542273221422 13.612999839453076 -5.061998251363385 0 1 1
3645 1 0.82 30.993570563163743 11.868471258537449 -2.3278699372384244 -1 0 1
2469 2 0.525 33.89513110403557 13.723865902521199 -2.5609880913391154 -2 -1 0
1793 4 -1.1975 32.38864435316785 13.810494594917111 0.2322480368142408 -1 0 1
2370 4 -1.1975 33.22346699959986 11.17288535598774 -4.399350701665273 -1 1 0
54 4 -1.1975 30.78947212266688 15.781340491931727 3.6271467980471725 0 -1 0
3278 1 0.82 32.58253984895639 11.05038147546221 1.720689267099619 0 0 1
2418 2 0.525 29.325144140806763 12.141061739404561 1.6313174751343753 0 1 0
25 4 -1.1975 32.2737980391239 16.683221854991473 -3.6456668551174025 -1 0 0
3681 1 0.82 34.22426860537948 9.489347894698993 -2.0021427858370227 0 0 0
393 2 0.525 33.703721004840816 16.552738306078155 -0.7769608963665545 0 0 0
2060 4 -1.1975 35.19768732205721 9.86370458151478 0.9938755587537478 0 0 0
2307 1 0.82 36.02181793620206 12.49981542123925 -4.942875182785617 0 0 0
420 1 0.82 33.70773078020198 15.326133204141888 3.0533496020763105 0 0 0
1522 1 0.82 32.34432826195581 14.02687703397111 -5.966862570740324 -2 0 1
1775 1 0.82 35.428127590947895 13.038749924145195 0.7657889246837655 -2 0 2
3355 4 -1.1975 34.08322344340954 12.508617215707462 4.205462116039296 -1 0 1
3531 4 -1.1975 37.73569291983114 10.8338108112987 6.958956571690116 -2 0 1
3581 4 -1.1975 35.308291714478216 15.619394506682328 -6.441598276459688 1 0 1
157 4 -1.1975 36.79756795165412 7.416014990797139 -1.3179932496075455 -1 0 0
2873 2 0.525 36.339479815308266 17.51925848979736 1.3306935695770592 -1 0 1
2275 2 0.525 36.60166978683153 15.76299696854923 -3.668480158070128 0 1 0
1013 4 -1.1975 36.653549211297005 11.660252927424258 -1.9616936440750432 0 0 0
961 4 -1.1975 39.05639412733382 13.816232485196158 -4.054434855089096 0 0 0
2467 3 2.1 38.871317668962206 13.209330150614528 -1.4922428949799722 0 1 0
2472 2 0.525 39.268398817003906 14.829320788004106 2.2695907737341074 -2 0 0
1997 2 0.525 36.944569082165444 11.05751278702674 3.6680911248390267 1 0 0
2297 4 -1.1975 38.364619331013934 12.115282760558914 1.1158664766562487 0 0 0
5 4 -1.1975 38.32124380575856 8.378921599027029 2.301033202668041 -1 0 0
928 3 2.1 37.644123733534606 9.609131003040465 -0.009225325783904684 0 -1 0
801 2 0.525 37.8327647628125 8.56876343121216 -3.9443048851960474 -1 -1 0
1620 4 -1.1975 37.30822258470895 15.328577884579497 -0.6900824351348043 -1 1 1
2736 4 -1.1975 37.63321409181075 16.80759293436671 3.9875096473240914 1 0 0
2789 2 0.525 40.06148851109836 17.46258035481572 0.08984865646450786 -1 0 1
3021 4 -1.1975 24.844416264081175 18.102655541647763 4.705949515072617 0 0 1
1659 1 0.82 2.3921763408118535 3.035078582508871 4.495644355053215 0 0 0
1412 1 0.82 1.4679455964488488 6.373391070776526 5.086538653974507 0 -1 1
417 4 -1.1975 0.3994301584736215 -2.127916950180282 8.636067022146335 0 -1 0
3821 1 0.82 3.071347461679684 1.3579321133565125 12.478400326607503 0 0 1
412 1 0.82 2.90713026985581 3.407343497518699 8.131466357132062 2 0 0
3241 2 0.525 2.2009715787612167 -0.28903128198187655 6.410669997067035 1 1 0
1895 4 -1.1975 0.32599568250159283 2.473226556369328 7.0700876103369765 0 -1 1
515 4 -1.1975 1.9192426245756584 3.901699512390236 10.996179483320937 -1 0 0
3807 1 0.82 3.694043076270046 -2.4605893597712196 10.79385713500118 0 0 1
1541 3 2.1 1.4446398867360601 6.576604239984475 10.647828837728525 0 0 -1
3586 1 0.82 0.8124735920845554 0.8134944563160653 9.764277261741036 1 1 0
1374 4 -1.1975 0.6352509244342199 5.962178153609036 8.00881930539006 0 0 1
1417 2 0.525 1.9652881333211365 4.743120218513308 14.11253950056379 0 0 0
569 4 -1.1975 3.8622131753733875 0.4414686174810045 9.667238874245518 1 0 0
2344 4 -1.1975 1.8704857801101094 -3.2062328504187887 4.557275736267445 0 1 0
1403 3 2.1 1.5083573173885645 -1.3776595829365617 14.89554479228227 1 0 0
2366 4 -1.1975 4.171993025537741 -0.7843398156898047 14.298684564521936 1 1 0
166 4 -1.1975 4.0673731498107575 6.759554311003459 9.815950854386475 1 0 0
30 4 -1.1975 4.195520352912743 -2.8707515870563944 7.419233920953309 0 1 0
3761 1 0.82 5.06027648010123 4.139690166588368 11.423141215024222 0 1 0
356 4 -1.1975 4.919731521006813 1.4092772955412647 6.097473087716614 1 0 0
2030 4 -1.1975 4.573444590808961 5.865077771035969 5.597536083949435 1 -1 0
2037 4 -1.1975 4.689429703785727 3.253426600527778 14.420671352581996 0 0 0
2336 2 0.525 5.537231290843025 -1.7831500986822872 4.619036037309853 0 1 -1
1799 2 0.525 5.843735886850599 4.537657048810557 8.127982207137821 0 0 1
3375 3 2.1 5.883651267302334 -0.22044685388115948 8.091154778945036 1 1 0
1251 2 0.525 6.862144979127487 3.510383085993575 4.9828412042303105 -1 -1 0
448 1 0.82 11.16628693585315 -1.0022005067376343 5.7502950434961555 1 0 0
2003 4 -1.1975 6.9468685687474085 -2.056821581360918 9.82917821342561 -1 1 0
1250 1 0.82 9.845212351376166 -0.17015500733482725 9.77475098502392 0 -1 1
2542 4 -1.1975 8.05583582747349 -0.730007080644087 6.379669253176651 0 0 0
3192 2 0.525 9.00081711408859 2.28976377286516 7.080559893733674 1 0 1
415 1 0.82 6.466162195205662 -0.11885812776472893 12.08765886750876 0 0 0
3503 4 -1.1975 7.108576352000936 1.9749432563543525 9.556363500307752 0 1 0
1794 4 -1.1975 9.109928374930114 1.352076510553248 12.38317160906507 -1 1 1
2915 4 -1.1975 7.759899449980377 4.931113456920171 12.96171156432467 1 0 0
3701 2 0.525 10.432853472522744 -1.0840300981749231 13.938169062369063 0 0 1
678 3 2.1 9.254629948554555 3.6432049308861894 10.910610571708832 0 0 0
3327 1 0.82 7.8520220869547845 6.592462954552262 6.206797862174717 0 1 1
3031 4 -1.1975 8.566089116031964 5.492360831804641 8.987599915727966 0 1 0
3477 2 0.525 11.055043622789976 5.484809498615549 6.648223660111802 1 1 0
3415 4 -1.1975 11.14927644253976 2.796176586120075 9.180394177971774 0 1 1
1075 4 -1.1975 11.52641671226061 2.263791527537828 5.281510332937077 0 1 0
3357 4 -1.1975 11.486114075275164 4.355407484639221 12.519151963003834 0 0 0
1590 3 2.1 10.396598783540405 6.414666603610536 14.217927002343012 1 0 0
1206 4 -1.1975 10.341225310012955 7.326268646732929 11.731501395646223 0 0 0
2746 4 -1.1975 4.403115000009551 7.117985932930287 13.732688160802223 1 1 -1
1166 1 0.82 7.176465684938099 7.382818713738837 11.060287529354005 1 0 0
2878 2 0.525 13.744965168542231 -3.159459046552667 4.2473898839682045 0 1 0
438 4 -1.1975 13.222523889734868 6.783701115201682 13.858591548752681 2 0 -1
1410 1 0.82 14.118026246752374 -1.5315951179121443 14.522685096055717 0 1 0
2982 2 0.525 12.773945808503234 1.3507626013942025 11.482727642128255 0 1 1
1266 3 2.1 13.219817804569844 2.569462591538618 7.4930833274940625 0 -1 0
2570 4 -1.1975 12.9280214354191 -0.22993178716444262 8.13656233810179 0 0 0
2932 4 -1.1975 13.564750524975517 5.321589968777346 8.469202939359871 0 1 1
2238 3 2.1 13.062430446316382 6.463985704478647 10.94727787630763 1 0 0
208 4 -1.1975 14.378813169449222 -0.17633099293964705 5.0183909660507595 0 0 0
3210 4 -1.1975 14.998548224459187 3.6752178590123146 11.955186936828904 1 1 0
381 4 -1.1975 14.784730913502129 3.325828662991067 4.839156855089012 0 0 0
1498 2 0.525 15.241024267053456 6.2648804361750425 5.500071204672576 0 0 0
2611 4 -1.1975 15.631710720927805 1.863711349762494 8.601007975616355 1 1 1
1591 4 -1.1975 16.07742711709691 -0.3804369301094952 12.032100455116069 0 0 0
3050 4 -1.1975 18.54836340060414 2.5347015754814217 13.36361913232854 1 1 0
1483 3 2.1 16.84239004113168 1.9140670070645465 11.165666359754173 0 0 0
79 1 0.82 16.500573949784282 5.104629852745793 9.074513190807988 -1 0 0
1385 4 -1.1975 17.678300156355206 -1.8008646277486822 5.601436622318313 1 1 1
1304 4 -1.1975 18.54523101742476 -0.37587496156228495 8.50770180383335 0 1 0
2445 4 -1.1975 18.83855968447787 3.1685871405104793 9.89806986088111 0 1 0
2392 3 2.1 15.830719491878705 -0.5754591010260266 7.293268722084182 0 0 0
1211 4 -1.1975 19.600704961290404 -0.6049944007921195 11.95577513719939 -1 0 1
1960 2 0.525 17.95724805932801 2.816129223754258 6.454293792833869 1 1 0
118 2 0.525 17.222788467900948 5.577345464796981 12.858284597408522 0 0 0