Generated by pymatgen.io.lammps.data.LammpsData

3888  atoms

   4  atom types

0.000000 33.121146  xlo xhi
0.000000 34.132362  ylo yhi
0.000000 51.154578  zlo zhi
2.562600 13.390740 4.852116  xy xz yz

Masses

1  85.4678
2   6.9410
3  28.0855
4  15.9994

Atoms

1     4 -1.1975 26.061105  2.374757  0.430318
2     1  0.8200  8.380344  2.043756  3.823435
3     2  0.5250  4.372369  7.864072  7.563504
4     4 -1.1975  4.268485  6.513554  4.265976
5     4 -1.1975 12.588667  6.288804  0.495628
6     3  2.1000  9.643087  5.776555  2.184769
7     4 -1.1975 20.442451 14.874405  0.785959
8     4 -1.1975 31.142839 14.712629 10.994812
9     4 -1.1975 21.663621  6.310010  4.847803
10    4 -1.1975  6.554306  1.479845  2.316928
11    1  0.8200  9.282460 13.797592  9.484833
12    2  0.5250 12.835875  5.939695 11.115800
13    4 -1.1975 10.174901  4.534922 12.958803
14    4 -1.1975  6.011733  7.574337  5.587345
15    2  0.5250 29.031182 10.068324  4.920964
16    4 -1.1975  7.947898 15.240829  2.366158
17    4 -1.1975  5.629008 15.680811  7.583979
18    4 -1.1975 31.548401 10.410680  0.947053
19    4 -1.1975 28.060600  1.987244  8.906393
20    4 -1.1975 33.292115 12.933365  4.103901
21    4 -1.1975 28.207276  1.556284 13.614296
22    4 -1.1975 24.766850 14.609250 14.653427
23    2  0.5250  8.942929 10.309020  0.575943
24    3  2.1000 31.037485  9.569349  8.177158
25    4 -1.1975  9.428350  6.846554 11.601012
26    2  0.5250 32.677665  3.604084  1.646626
27    4 -1.1975  6.408882 10.683718  1.712252
28    1  0.8200  3.568021  2.102385  4.321417
29    4 -1.1975 10.215178  1.433314 12.584570
30    4 -1.1975 21.976301  9.933704 10.565419
31    3  2.1000 15.950507  5.353636 11.046268
32    2  0.5250  4.559652 10.437718  6.005909
33    4 -1.1975 17.704448  2.744997 12.111973
34    2  0.5250  6.733444  2.903432  5.519661
35    4 -1.1975  7.344087  4.385644  2.393971
36    1  0.8200 31.362590  8.958950  4.768776
37    1  0.8200 35.193631  6.217626 10.989752
38    2  0.5250  8.332198  5.158566  6.946059
39    3  2.1000  4.905223  4.015966  2.583469
40    3  2.1000  2.780683  9.585625  7.647221
41    1  0.8200 30.499388 11.902450  4.012094
42    4 -1.1975  2.514644  2.884761  6.808024
43    4 -1.1975 18.141729  8.915982  0.251268
44    1  0.8200  3.082568  6.607688  2.103021
45    1  0.8200 14.494977  2.275378  2.982613
46    4 -1.1975 11.771230  6.848692  3.001885
47    4 -1.1975 15.210712  9.694048  5.894864
48    2  0.5250 16.276441  2.900375  4.002381
49    4 -1.1975  8.763754 14.940962  0.210700
50    2  0.5250 11.486423  5.886681  5.836742
51    4 -1.1975 34.367052 17.172889  1.155120
52    2  0.5250 21.057097  3.834183  3.022013
53    4 -1.1975 20.060231  6.493048  1.783406
54    4 -1.1975 21.183995  5.262774  8.647809
55    1  0.8200  8.496413  2.682636 13.366848
56    2  0.5250 17.423478  5.916536  7.071263
57    3  2.1000  8.083863 10.404788  2.980461
58    1  0.8200 20.834551  2.428905 16.689054
59    4 -1.1975 16.122823  3.167133 15.413344
60    1  0.8200 13.853586  6.470258  2.393090
61    2  0.5250  6.002204  8.961594  8.737114
62    4 -1.1975 17.735218  6.396956  0.758740
63    4 -1.1975 17.897863  3.079918  5.835348
64    4 -1.1975 21.297596  7.951939  3.393981
65    2  0.5250 19.702388  6.148640  7.374864
66    2  0.5250 15.583839 14.658484 11.550041
67    4 -1.1975 23.760928  3.232132 15.607305
68    1  0.8200 18.313471 11.518477  4.043235
69    2  0.5250  6.174702  7.168988  0.973122
70    1  0.8200  6.563050  4.399356  9.037725
71    4 -1.1975 18.193859  5.321803  9.993868
72    1  0.8200 28.615025 17.019774  3.938543
73    2  0.5250  2.048030  3.059460  2.481489
74    3  2.1000 13.394528  6.091649  7.924815
75    4 -1.1975 29.840727  0.908849  4.074257
76    1  0.8200 33.795535  6.052028  4.799962
77    4 -1.1975 13.905024  4.136450  1.431685
78    4 -1.1975 15.036542  7.405524  7.023295
79    1  0.8200 11.925462  3.094903  4.201418
80    4 -1.1975 13.341871 10.837951  6.871221
81    4 -1.1975  8.558733  7.838235  0.733382
82    3  2.1000 16.560791  7.478638  2.128174
83    1  0.8200  5.994252  3.860663 11.562786
84    4 -1.1975 13.210707  4.612705  4.288895
85    4 -1.1975 18.581647  4.083501  7.792488
86    2  0.5250  5.036832  2.613027  9.163663
87    1  0.8200 13.083948  0.660034  4.440384
88    3  2.1000 14.847308  6.188558  5.074781
89    4 -1.1975  3.318823 15.509141  1.517556
90    3  2.1000 22.365664  4.218207  1.146203
91    3  2.1000 12.816088  3.687782  6.710166
92    1  0.8200 21.445703  0.654609  6.230872
93    2  0.5250 18.029478 14.417033  1.365182
94    4 -1.1975 20.216992  8.429948  7.478253
95    4 -1.1975 30.939961  1.299671  6.193185
96    4 -1.1975 27.406949  2.298082  3.943272
97    1  0.8200 29.396520 10.918068  1.647749
98    2  0.5250 26.609082  9.558851  4.728959
99    2  0.5250 22.958689  6.364600  1.864228
100   1  0.8200 23.628194  8.686316  1.569531
101   3  2.1000  8.401345 16.503415  7.900347
102   1  0.8200 23.789258 13.904893  9.968912
103   4 -1.1975 29.318516  4.740236  7.721025
104   1  0.8200 18.857855  4.096896  0.074606
105   4 -1.1975 31.069570  6.861921  8.475403
106   4 -1.1975 29.448324  5.195612  2.218340
107   1  0.8200 17.202385  5.296645 14.517394
108   1  0.8200 30.749260 13.175679  1.546730
109   2  0.5250 19.352439  7.612199  4.891052
110   1  0.8200 24.787266  3.101476  5.967145
111   1  0.8200 29.480141  8.827326  6.215580
112   4 -1.1975 24.958036  4.634975  1.103739
113   2  0.5250 33.287250  9.189818  1.661423
114   4 -1.1975 18.535407  5.657517 12.586564
115   4 -1.1975 16.339822 10.606483  2.118125
116   3  2.1000 21.301477 10.789492  8.035157
117   3  2.1000 23.839587 12.149504  5.123650
118   2  0.5250 23.552633  4.825932  6.243062
119   4 -1.1975 29.526528 14.078305  3.615705
120   3  2.1000 13.376398 12.642071  1.542248
121   4 -1.1975 15.974093 12.972476  1.533793
122   4 -1.1975 15.875021 17.010555  9.176816
123   3  2.1000  9.763551  4.294970  3.956058
124   1  0.8200  5.422794  0.736933  4.416614
125   4 -1.1975 30.788862 12.880266  6.274924
126   4 -1.1975 27.217217  6.299717  1.074563
127   4 -1.1975 20.348020  2.003648  4.593446
128   2  0.5250 31.761864  6.143604  6.298626
129   1  0.8200 12.949944 11.372005  3.989512
130   2  0.5250 18.749306  3.035299 13.992998
131   3  2.1000 31.916846  7.105889  3.866482
132   4 -1.1975 15.668853  4.874129  3.103780
133   4 -1.1975  5.176747  9.201334  0.289867
134   4 -1.1975 31.338025  3.464442  6.881735
135   4 -1.1975 29.894292 11.853300 14.679895
136   2  0.5250 26.580276  8.676300  7.293007
137   1  0.8200 20.547764  3.865280  6.019192
138   2  0.5250 25.807791  3.646367  3.185654
139   2  0.5250 31.411402  0.479391  1.811516
140   3  2.1000  7.250055  6.761339  2.780246
141   4 -1.1975 19.183558  5.108152  4.308710
142   2  0.5250 17.224299 16.750437 14.894441
143   1  0.8200 24.201058  5.915356 14.213815
144   2  0.5250 18.791351 15.160006  7.521489
145   2  0.5250 29.843415  6.336587 10.493400
146   1  0.8200  2.638722  0.758122  2.130300
147   3  2.1000 31.995342  6.566142  1.144996
148   4 -1.1975 18.390829 10.049332 12.898157
149   1  0.8200 28.115033 12.164119 10.166210
150   4 -1.1975 31.282862  4.617337  4.177343
151   1  0.8200 32.328074  2.517799  3.989109
152   4 -1.1975 12.266670 17.539274  6.215147
153   4 -1.1975 10.771742 16.694124  8.466473
154   3  2.1000 25.787298 11.029656 14.918379
155   3  2.1000 26.760730 13.813870  2.344669
156   2  0.5250 32.618088  8.082617  7.402385
157   4 -1.1975  4.764631  3.969621  6.284778
158   2  0.5250  9.452801  4.152829  0.259428
159   1  0.8200 28.997740  8.209633  8.847004
160   4 -1.1975 23.877219  1.059909  8.530923
161   4 -1.1975 22.282533  1.880922 13.892637
162   2  0.5250 11.710629  1.773855  8.579813
163   2  0.5250 22.581926 15.079104  0.970632
164   2  0.5250 15.168598  3.177925 13.018914
165   4 -1.1975  2.811998  5.955515  6.328247
166   4 -1.1975 33.257633  9.679069  9.342117
167   4 -1.1975 30.486823 12.017066  9.273776
168   2  0.5250 27.252242  5.355113  3.643978
169   2  0.5250 10.982035 14.161939  8.005499
170   4 -1.1975 11.323899  4.399298  2.218290
171   4 -1.1975 33.306090 16.064684 10.313600
172   4 -1.1975  8.861906  7.759129 16.183224
173   2  0.5250 13.012477  8.435871  1.083782
174   2  0.5250 35.013283  8.907204  5.563489
175   1  0.8200 15.431776  1.938029 10.799462
176   4 -1.1975 31.171792 11.146791 16.269067
177   4 -1.1975  4.370647 10.916838  1.793919
178   3  2.1000 11.938366 11.515390  0.467645
179   4 -1.1975  5.581812 11.029712  7.693597
180   2  0.5250  5.585587 15.794935  1.062251
181   2  0.5250 11.806638 17.908677 14.192918
182   4 -1.1975 32.384907 11.484195  2.664279
183   2  0.5250 36.052131  9.800240 12.448430
184   3  2.1000  7.138610  4.871251  4.721799
185   2  0.5250  3.829519 12.835427 10.327946
186   4 -1.1975 11.386675 14.781087 10.402706
187   4 -1.1975  1.302955 11.928484  1.272086
188   1  0.8200 10.680408 17.087769  3.695374
189   4 -1.1975 10.915694 17.195345 11.026300
190   2  0.5250 10.688492 16.082118 16.228411
191   2  0.5250  3.771217  9.247765  3.973235
192   4 -1.1975  8.851034  2.649694 16.983825
193   4 -1.1975  5.882045  8.931696  3.148040
194   4 -1.1975 25.383487  7.643031  0.011866
195   4 -1.1975  9.382555 17.129558  5.799396
196   1  0.8200  7.101796  9.821490  5.491111
197   4 -1.1975 23.437604  3.676156 12.986920
198   4 -1.1975 14.607995  9.617189  2.348483
199   2  0.5250  9.223306 15.086598  4.409595
200   1  0.8200 36.318735 18.371889 15.784797
201   3  2.1000 10.855977  8.937875  5.422780
202   4 -1.1975 33.030013 13.623402  9.124444
203   1  0.8200 36.243491 16.669822  8.735426
204   4 -1.1975  4.919939  8.986782 14.715244
205   4 -1.1975 22.856098 11.918787  0.577809
206   2  0.5250 31.203870  2.216835 10.546340
207   2  0.5250 19.705369 13.001395  3.405073
208   4 -1.1975 16.378430 16.344986  7.356880
209   1  0.8200 17.641087 13.334846  9.102959
210   4 -1.1975 25.546110  1.812065 13.372740
211   2  0.5250  7.585464 10.993186  8.353531
212   4 -1.1975 16.864829  6.794836  4.778231
213   2  0.5250 15.802077 12.357012  3.867279
214   1  0.8200 11.001380  8.489135  0.511523
215   1  0.8200 35.812627 18.095190 12.939907
216   4 -1.1975 24.004149 13.398187  0.169953
217   4 -1.1975  9.145009  8.193527  3.559084
218   4 -1.1975 34.427861  8.012343  3.463746
219   4 -1.1975 18.532868  8.987734  3.075789
220   1  0.8200 20.812162 11.947191  0.297540
221   3  2.1000 32.737611 14.253246  1.566723
222   3  2.1000 22.335682  9.396924  5.399797
223   1  0.8200 23.369890 10.066597  3.559417
224   4 -1.1975  7.896740 14.949002 12.707830
225   1  0.8200  6.258759  1.532524 15.333965
226   1  0.8200 22.804706  1.910116  0.875321
227   3  2.1000  7.710640  2.703316 10.107774
228   1  0.8200 16.356333  9.161077  3.976208
229   4 -1.1975 18.773128  9.644128  6.231803
230   4 -1.1975 11.245051 15.447027  5.591508
231   4 -1.1975 33.617423 11.330846 16.408746
232   2  0.5250 28.384027  3.740281  5.507320
233   4 -1.1975 11.421545  9.470074  3.197117
234   1  0.8200  8.979618 10.816310  5.792383
235   2  0.5250 22.588248 12.552534 15.694851
236   1  0.8200 12.898933 14.877379  0.608146
237   4 -1.1975  7.072824 13.007188  4.210073
238   4 -1.1975 27.901556  9.352624  1.011266
239   2  0.5250 25.219926  6.754952  2.022323
240   1  0.8200 14.369311  2.648024  5.584986
241   4 -1.1975 32.471693  7.565552 10.060434
242   4 -1.1975 28.236028  7.630534  2.489995
243   4 -1.1975 27.722093  3.984818 13.431290
244   1  0.8200 17.197955  3.142158  9.839903
245   2  0.5250 34.140520  5.592178  2.494637
246   3  2.1000 15.595715 12.515004  8.273873
247   3  2.1000 20.187684 10.566058  3.581930
248   4 -1.1975 29.709367 15.014878  0.439604
249   3  2.1000 27.386249 16.220792 15.460863
250   2  0.5250 27.032092 14.555959  4.542473
251   2  0.5250 11.105997  3.516798 15.928487
252   4 -1.1975 26.016177  0.697740  6.021949
253   1  0.8200 18.547308  3.979327 16.393968
254   2  0.5250 22.572010 14.056754  5.791107
255   4 -1.1975 21.353599 14.958659  8.473180
256   4 -1.1975  6.667525  1.507405 13.031928
257   2  0.5250 26.524554  9.671391  9.409098
258   4 -1.1975 22.055472 12.612049  2.981625
259   4 -1.1975 24.738383 13.737849  7.243435
260   2  0.5250 21.307941 12.011393  5.521695
261   4 -1.1975 34.935914  6.575718 16.429211
262   1  0.8200 30.707900  3.441818 15.163521
263   1  0.8200 24.019171 17.097366  4.464241
264   2  0.5250 26.001598 11.096400  1.882218
265   4 -1.1975 27.040117 18.027105 11.197630
266   4 -1.1975 24.945686 14.732105  4.894408
267   3  2.1000 17.463655 14.135452 16.576681
268   2  0.5250 17.384191 11.858024  6.375761
269   1  0.8200 27.728170 16.316168  1.785967
270   4 -1.1975 23.113210 11.056296 13.266154
271   4 -1.1975 37.419406 13.372228 16.851508
272   2  0.5250 33.712879 13.787070  6.719296
273   4 -1.1975 29.655949 14.637224  9.011625
274   4 -1.1975 26.051762  5.467309  7.326704
275   3  2.1000 30.242991 11.507753 11.613370
276   2  0.5250 37.625062  3.249222 16.810242
277   1  0.8200 19.982939 12.819924  9.572644
278   1  0.8200 33.009356 16.701107  3.594294
279   3  2.1000 29.273796 14.817148  6.129172
280   1  0.8200 29.601516 16.704253  9.945333
281   1  0.8200 26.591177  6.983116  5.305634
282   1  0.8200 24.445389  1.947327  2.651889
283   2  0.5250 31.478224 15.048815  7.798694
284   3  2.1000 18.678824 11.553281  1.342230
285   2  0.5250 30.046921  2.914569  3.334245
286   1  0.8200 29.199538  7.774404 14.341336
287   1  0.8200 22.374719 17.159075  8.286992
288   2  0.5250  2.356943  9.602627  1.440395
289   2  0.5250 29.188928 16.848277  7.208931
290   1  0.8200 12.447090  1.749784 10.661530
291   4 -1.1975 25.173184 16.466751 11.934645
292   2  0.5250 21.444422 17.643134 15.878327
293   4 -1.1975 14.129031 10.071943 15.383883
294   2  0.5250 13.000224 16.285424 12.442037
295   3  2.1000 32.033888 17.136905  5.368407
296   4 -1.1975 20.021676 11.932802 16.192161
297   4 -1.1975 18.059812 16.139354  2.718992
298   4 -1.1975 32.891258 10.777741  5.662960
299   4 -1.1975 28.874458  0.493320  2.154327
300   1  0.8200 34.638262 10.696378  3.403288
301   1  0.8200  2.707135 14.948514  5.358850
302   4 -1.1975 35.693474  3.354750 15.437117
303   4 -1.1975  9.942483  0.529255  5.080628
304   1  0.8200  4.339816 13.116507  6.261239
305   1  0.8200 27.190002 14.084072 13.785355
306   1  0.8200 19.933524  2.281075  1.290057
307   4 -1.1975 28.935808 11.000909  7.123569
308   2  0.5250  6.833965  7.210634 10.159105
309   4 -1.1975 29.746537 13.481166 12.728487
310   4 -1.1975 33.633844 15.970867  7.793867
311   2  0.5250 13.379299  2.213378 15.516841
312   4 -1.1975 22.363261  0.310365  2.647801
313   1  0.8200 29.196605  6.703464  4.857734
314   4 -1.1975 34.733976  7.539578  8.428481
315   4 -1.1975 14.894934 14.991438  1.967492
316   4 -1.1975  9.285781 10.678599 15.017032
317   3  2.1000 18.130626 14.108101  5.293575
318   2  0.5250 19.599747  9.078220 16.045559
319   4 -1.1975  3.003071 13.677412  2.861527
320   4 -1.1975 35.244570 11.833684  8.516967
321   4 -1.1975 10.009711  3.693422  7.971034
322   3  2.1000 29.960715 16.183884 14.651896
323   4 -1.1975  3.462449  5.671128  8.828328
324   3  2.1000 33.463834  5.103280  9.070390
325   3  2.1000 30.668373 16.023983  2.221896
326   4 -1.1975 10.631557 11.596255 13.044979
327   2  0.5250  7.258485  9.550106 11.567478
328   2  0.5250  5.945793 12.032784 11.757117
329   4 -1.1975 11.443283 12.437622 10.852842
330   4 -1.1975 27.083188  1.870447 11.332072
331   4 -1.1975 13.039008  4.183589  9.845551
332   4 -1.1975 10.929303  3.882251 10.993844
333   4 -1.1975  5.607405  4.619081  0.597954
334   3  2.1000 10.460597 13.446189 14.798651
335   1  0.8200  8.595119  6.383638 13.966144
336   4 -1.1975  6.148296  6.784740 14.911012
337   4 -1.1975 11.275276 10.969230  5.302285
338   1  0.8200  7.095191 15.264311  5.620368
339   4 -1.1975  5.012639  1.495353  7.216152
340   4 -1.1975  8.975898  6.850995  9.265556
341   3  2.1000 15.962101  9.018796 13.960458
342   4 -1.1975 15.973045  1.642452  7.385036
343   2  0.5250  6.367821  4.229005 15.807210
344   4 -1.1975  6.424390  6.752768 12.533640
345   4 -1.1975  5.675582  5.907299  7.572117
346   2  0.5250 32.039808 17.267242  8.972828
347   4 -1.1975  8.619525 11.483164 11.000465
348   4 -1.1975  7.709251  4.699241 12.820649
349   1  0.8200 11.744313 10.312279  8.618056
350   4 -1.1975 14.529347 10.748937 10.071016
351   4 -1.1975  8.793091  6.731685  5.339222
352   1  0.8200 17.928734  4.242932  2.665826
353   2  0.5250  6.409785 17.560663  9.490253
354   4 -1.1975 10.550199  6.083244 16.304166
355   3  2.1000 17.241006  2.428700  1.332280
356   4 -1.1975 21.128360  7.787386 10.282236
357   2  0.5250 16.260203  9.483993  8.490991
358   2  0.5250 18.305102  8.173593 14.457297
359   3  2.1000  9.521676  9.590279 12.701373
360   4 -1.1975 13.771727  4.671623 15.594345
361   2  0.5250  8.911513 15.844701 10.492380
362   3  2.1000 18.576930  1.743032  7.840577
363   4 -1.1975  1.622611  0.925209  4.168607
364   1  0.8200 13.834781  8.367480  4.418643
365   2  0.5250 23.891825  7.425131 16.025732
366   4 -1.1975 15.229314  4.101042  6.440849
367   4 -1.1975 13.334328 11.631200 13.109291
368   4 -1.1975 19.940495  3.757826 10.026967
369   4 -1.1975 11.586171  1.615607  6.287353
370   4 -1.1975 15.235135  8.813052 11.682606
371   4 -1.1975  9.062807 12.987986  1.797647
372   3  2.1000 26.703951  9.963291 12.199501
373   3  2.1000  2.970078  4.807617  0.760471
374   1  0.8200 12.624357  8.110858  6.248468
375   4 -1.1975 16.879138  7.276550 12.588223
376   1  0.8200  4.560504 15.212626  9.990680
377   4 -1.1975 11.266783 10.486975 10.830824
378   3  2.1000 21.367566  6.803378 16.165879
379   1  0.8200  8.369070 12.420001 15.695987
380   2  0.5250 15.956778 11.876851 12.454455
381   4 -1.1975 16.816625 16.951710 11.262007
382   1  0.8200  7.781775  8.004695  7.355793
383   4 -1.1975  9.650520  3.208883  5.879084
384   3  2.1000 20.594750  2.209505  8.368359
385   3  2.1000 13.954736  1.749910  9.073717
386   3  2.1000 10.270891 15.995845 13.343579
387   1  0.8200 17.938340  7.384113  8.746508
388   4 -1.1975 12.087929  3.139863 13.478201
389   2  0.5250 17.696335 10.630055 15.530507
390   3  2.1000 29.805150  2.905233  0.675460
391   2  0.5250 21.334828 10.235443  1.765808
392   4 -1.1975 13.645968  8.074538 13.185628
393   2  0.5250 11.069459  5.697951  9.196819
394   4 -1.1975 13.080571  7.345070 15.846545
395   4 -1.1975 11.437032  7.492815 12.672517
396   1  0.8200 32.721043  7.319474 16.012031
397   2  0.5250 26.631659  6.949291 15.100513
398   4 -1.1975 23.838426  7.203989  6.234642
399   2  0.5250 19.345559  0.169612  1.395002
400   1  0.8200 23.193686  7.059414 12.410706
401   4 -1.1975 18.217805  6.754729 16.373301
402   4 -1.1975 17.820420 15.047895 13.024690
403   4 -1.1975 18.652403  9.051588 10.228568
404   1  0.8200 34.759900 17.142853  5.757879
405   1  0.8200 19.219972  1.227607 10.794435
406   4 -1.1975 20.804138  2.529503 12.158915
407   4 -1.1975 22.892820  9.153868  8.518980
408   2  0.5250 22.831485  3.399297 10.091544
409   1  0.8200  5.420345 15.209448  3.288437
410   2  0.5250 23.342315  5.882633  8.777037
411   3  2.1000 24.614060  8.061799  3.714154
412   1  0.8200 32.802622 13.982334 12.737076
413   1  0.8200 22.117673  7.013222  7.440389
414   4 -1.1975 22.870892  2.546398  4.610480
415   1  0.8200 18.705096 12.698484 14.731589
416   4 -1.1975 23.731586  4.688415  4.087602
417   4 -1.1975 24.287613  1.650085 10.946735
418   1  0.8200 26.866284  2.652268  7.354079
419   3  2.1000 27.901537 11.629780  3.393957
420   1  0.8200 30.995906  1.553296  8.644477
421   3  2.1000 21.383162  5.156118 11.895915
422   2  0.5250 30.144629  9.515806 13.001052
423   4 -1.1975 12.947765 15.034473  7.274477
424   1  0.8200 25.637954  7.526770 12.148505
425   4 -1.1975 20.057482  6.522877 14.511688
426   1  0.8200 25.635030  4.056537 15.075451
427   1  0.8200 20.331641 11.311532 14.020592
428   4 -1.1975 31.293235  4.240988  9.400653
429   1  0.8200 23.824652  1.331431  6.321722
430   4 -1.1975 33.605783 16.455154 13.124513
431   1  0.8200 24.824584  4.624352 10.724154
432   2  0.5250 27.840259 13.503752  7.220633
433   4 -1.1975 22.293572  3.217042  7.411878
434   2  0.5250 18.724504 11.111087  8.068245
435   4 -1.1975 19.732540  8.003134 12.305932
436   1  0.8200 22.295673 12.940645  8.055042
437   4 -1.1975 27.004234  6.223762  9.975300
438   4 -1.1975 24.288740  9.669736  6.853585
439   2  0.5250 35.342014 17.059107 10.909036
440   1  0.8200  7.258865  8.807038 13.510215
441   2  0.5250 28.379594  2.627037 16.053987
442   4 -1.1975 12.429772  5.802633 13.465105
443   2  0.5250 27.739707  3.505079  1.205058
444   4 -1.1975 28.616274  4.211509 10.385179
445   1  0.8200 30.222009  3.679343 12.282444
446   1  0.8200  8.752821  4.683683 10.657435
447   1  0.8200 36.970557  5.428177 15.903189
448   1  0.8200 33.968194  3.406471 11.153025
449   4 -1.1975 32.291849  9.525407 12.216089
450   3  2.1000 33.955302  2.220568  9.077988
451   2  0.5250 26.944237  8.940721 14.332361
452   2  0.5250 36.893949  7.493559 13.508746
453   2  0.5250 11.947104  2.372817  1.022786
454   1  0.8200 33.098996 11.762752  7.745607
455   4 -1.1975  8.902096 17.168933  1.454127
456   1  0.8200  4.865206  2.727628 13.613571
457   2  0.5250 32.400841 11.625739 13.414787
458   2  0.5250  4.082090  2.269878 11.683215
459   3  2.1000 17.252551 16.805032  5.598385
460   4 -1.1975 26.662059  5.257904 12.120748
461   4 -1.1975 26.221638  3.817579  9.565665
462   4 -1.1975 13.368359 16.843850  3.544010
463   1  0.8200 31.887252 14.663251  5.012649
464   1  0.8200 28.342531  8.486123 11.147767
465   4 -1.1975 33.620086  2.137191  6.178818
466   4 -1.1975 32.525330 11.845780 10.662906
467   4 -1.1975 32.629571  5.474759 11.900000
468   4 -1.1975 28.623086  6.361944 12.444820
469   1  0.8200  9.714307 17.999324 12.714450
470   3  2.1000  2.999295  1.246359  9.535797
471   4 -1.1975 14.498031 17.168975  6.143109
472   2  0.5250  4.742251  2.049952  1.002964
473   4 -1.1975 33.246675  4.161938  6.222316
474   1  0.8200 35.142049  2.157774 13.286210
475   2  0.5250 28.102021  6.561471  7.889862
476   1  0.8200 31.560246  4.979210 14.098054
477   2  0.5250 36.387205 13.803395 14.866836
478   1  0.8200 10.335214  8.271475 14.490902
479   1  0.8200  4.387057 17.042050 11.754568
480   4 -1.1975 12.785956  8.918522 11.548632
481   2  0.5250  5.970149 13.553494 15.189151
482   4 -1.1975 10.335877  8.234592  7.752040
483   1  0.8200  6.295702 17.188689 14.405468
484   4 -1.1975  7.507560 12.817625 12.992571
485   3  2.1000  6.972753 12.701685  6.657997
486   4 -1.1975 11.936201 13.145648  5.410196
487   4 -1.1975 24.934563 17.121937 14.996647
488   4 -1.1975 15.836901  5.300568  0.445133
489   3  2.1000  9.746842 13.659275 12.314173
490   4 -1.1975 35.177670 14.542242 11.442366
491   4 -1.1975 10.142103 11.703019  8.059749
492   1  0.8200 34.635934 11.124460 14.372555
493   4 -1.1975 15.230974  1.382497  1.062462
494   4 -1.1975 15.902089  5.609353 16.634406
495   4 -1.1975 28.029308 10.430965 16.681254
496   2  0.5250 10.007493  8.750427 10.075617
497   1  0.8200  9.179978 17.577496 16.240405
498   4 -1.1975  8.307079 15.452762 15.116094
499   1  0.8200  4.270003 12.039458  4.120903
500   1  0.8200 34.666633 15.651754 15.056245
501   4 -1.1975  6.559055 14.234543 10.910420
502   2  0.5250 15.619230 14.287626  9.271154
503   4 -1.1975  9.351826 12.678471  4.477448
504   4 -1.1975 13.659809  3.669067 11.918281
505   2  0.5250 17.665037 11.129225 10.292878
506   3  2.1000 21.245403 17.185031 10.655021
507   2  0.5250 12.787892 13.565187 15.071475
508   4 -1.1975 22.392056  4.841306 15.637810
509   4 -1.1975 12.946049 12.926917  8.537394
510   4 -1.1975  6.197675 11.030495 13.924126
511   2  0.5250  4.407092 16.559569  4.978684
512   1  0.8200 29.318617 18.295325 15.463566
513   1  0.8200 11.443143 11.882282 15.873314
514   1  0.8200 20.225454 15.745758  5.903841
515   4 -1.1975 11.347260  0.982590  2.840462
516   4 -1.1975  2.572383  4.223101  4.694508
517   1  0.8200 28.416561  1.501589  6.392626
518   4 -1.1975 13.311478 13.671895  3.640019
519   4 -1.1975 21.315103 15.004961 10.920454
520   4 -1.1975 14.459629  5.787213 13.152732
521   2  0.5250 28.352297 16.692437 12.991713
522   1  0.8200 14.629777 12.347329 15.440515
523   3  2.1000 36.350880  8.333915 15.826555
524   2  0.5250 15.068890 12.432332  6.047755
525   1  0.8200  7.340273 12.383369  0.225953
526   4 -1.1975  5.177449 14.710764 12.377353
527   1  0.8200 14.426999 15.090693 14.317413
528   2  0.5250 30.529099  8.446263  2.233974
529   4 -1.1975 10.577000 12.247646  2.687114
530   3  2.1000 34.038120 13.351689 15.396419
531   1  0.8200 14.066505  8.993194  8.050766
532   2  0.5250 13.439933 15.328343  9.913415
533   4 -1.1975  7.371412 14.978077  9.197939
534   3  2.1000 28.884886  5.463669 15.564014
535   2  0.5250 12.557308  7.945921  9.204920
536   1  0.8200 12.724595 14.213329 12.518315
537   4 -1.1975  9.275648 13.959736  6.610908
538   4 -1.1975 16.409829 14.556006  3.559401
539   4 -1.1975 23.366221 16.586775 10.784061
540   4 -1.1975 21.701053  9.453804 16.048672
541   4 -1.1975 14.465638 14.985790  5.196914
542   4 -1.1975 19.978937 13.219162  7.198078
543   2  0.5250 19.030013 17.863081 11.958744
544   4 -1.1975 11.845166 10.022395 14.626679
545   1  0.8200 14.237657 12.930509 10.916447
546   4 -1.1975 37.506324 11.766548 15.275258
547   1  0.8200  5.298626 13.543477  8.399020
548   2  0.5250 26.356934 11.843952  5.492899
549   3  2.1000 16.423109 13.156406 14.243841
550   4 -1.1975 23.265231 15.805670  6.506197
551   2  0.5250 34.481313 15.189850  2.603799
552   4 -1.1975 11.107686 15.202465  2.492187
553   4 -1.1975 35.826088  3.544648  9.873902
554   2  0.5250 33.540255  1.291262  2.046658
555   2  0.5250 34.507426  8.829467 11.428463
556   4 -1.1975  5.374679  8.733530 11.484296
557   2  0.5250 24.545387 12.596150  2.721068
558   4 -1.1975 22.449460 15.000066 15.155519
559   1  0.8200 27.302526 15.879675  8.347212
560   2  0.5250 17.892159  1.509959  3.751082
561   1  0.8200 22.080007 12.505170 11.039253
562   1  0.8200 22.729003  8.908637 13.547456
563   2  0.5250 30.858153  8.891370 15.953216
564   1  0.8200 24.960161 15.748819  2.185556
565   2  0.5250  4.965899 15.430626 14.648202
566   4 -1.1975 23.735461 10.360744 16.331743
567   4 -1.1975 24.573995 11.237658 10.942929
568   2  0.5250 28.300101 14.495720 10.907457
569   4 -1.1975  7.872583  2.302899  7.842135
570   1  0.8200 19.187946 13.335692 11.788762
571   1  0.8200 20.982694 13.451962 13.906105
572   1  0.8200 32.422017  9.650017 14.376070
573   4 -1.1975 24.588913  8.924344 11.084139
574   3  2.1000 32.473405  2.799138 12.596732
575   4 -1.1975 25.654822 11.835759  8.351243
576   4 -1.1975 26.432141 16.590101  5.507879
577   4 -1.1975 15.689559  7.015938  9.587331
578   2  0.5250 25.193265  7.356722  8.837333
579   2  0.5250 34.450058  6.222473 13.447949
580   2  0.5250 36.090807  4.472823 12.362653
581   1  0.8200 27.662335 11.063674 13.841699
582   1  0.8200 22.841044 16.764470 13.501189
583   2  0.5250 24.839465  9.081313 14.118801
584   4 -1.1975 22.696504 15.066124  3.441823
585   1  0.8200 25.251963 12.844994 12.802373
586   1  0.8200 26.500995 13.753352  9.280777
587   1  0.8200 20.666928 15.019122  3.981600
588   2  0.5250 19.723222 14.811380 16.044138
589   1  0.8200 24.453954 15.809678  8.624577
590   4 -1.1975  9.352652  2.485390  1.762868
591   4 -1.1975 16.159379  4.331628  8.450412
592   3  2.1000 36.458584 12.458675 13.205644
593   1  0.8200 26.020579 14.709715 11.802123
594   4 -1.1975  4.620780  5.828437 10.788381
595   4 -1.1975 20.952193  4.217909 14.251702
596   4 -1.1975 31.389364 16.423115 12.363360
597   4 -1.1975 18.304546 15.179638 10.218304
598   4 -1.1975 14.375006 17.146002 15.021538
599   4 -1.1975 29.486049 13.860516 15.326546
600   4 -1.1975 26.346092 17.349137  3.536528
601   2  0.5250  9.042047  4.747098 15.436193
602   2  0.5250 23.071262 13.759852 13.038803
603   1  0.8200 35.078310 11.560012  5.897177
604   4 -1.1975 31.768457 17.487310 15.241011
605   4 -1.1975  5.576744 13.332447  1.438776
606   3  2.1000 34.699588 12.716050 12.295173
607   2  0.5250 20.706471 10.174782 12.056833
608   4 -1.1975 35.716432 14.359085  8.068540
609   2  0.5250 30.767021  9.306720 10.484951
610   4 -1.1975  4.618461 10.513996 10.073439
611   1  0.8200 31.481333  7.179386 12.707499
612   2  0.5250 15.796584  7.506177 15.383409
613   4 -1.1975 15.739072 16.695117  3.223949
614   3  2.1000 32.042130 14.522224 15.212673
615   1  0.8200 34.059526 18.227816 14.728435
616   4 -1.1975 33.663015  4.570178 14.822521
617   2  0.5250  3.562832  7.904577 10.335291
618   1  0.8200  4.869695  5.156754 13.846710
619   4 -1.1975 27.059201 14.132002 16.195484
620   4 -1.1975 34.696822  8.273240 13.713197
621   4 -1.1975 20.614085 15.962830 12.846936
622   1  0.8200 35.004129 11.379700 10.716017
623   2  0.5250  8.208939  0.683457  0.404996
624   4 -1.1975  6.542310 16.778190 11.717581
625   2  0.5250 19.258146 18.059446 14.803313
626   4 -1.1975 19.572143 16.934119  0.674223
627   2  0.5250 15.324217 18.063629 12.771210
628   4 -1.1975 13.024626 17.445421  8.350403
629   4 -1.1975 13.437100  1.315586 12.663740
630   4 -1.1975 10.076717 13.934420 16.822548
631   4 -1.1975 24.546426 13.041977 16.404287
632   2  0.5250 36.378062 15.848062 16.676510
633   2  0.5250  7.087622  9.539585 15.733358
634   1  0.8200 33.528448 17.384968 16.924875
635   2  0.5250 13.172498  0.160306  1.469654
636   2  0.5250  6.653307 17.468648  6.690380
637   2  0.5250 19.599179 17.119886  7.981452
638   4 -1.1975 11.248512 17.123614  0.890630
639   1  0.8200 16.629273 12.165704 17.023887
640   1  0.8200 35.841941 10.974869 16.980366
641   4 -1.1975 26.237167 14.879131  0.317998
642   2  0.5250 14.709313 10.853598  0.193255
643   2  0.5250 32.179095 16.127524  0.325200
644   4 -1.1975 38.200461 10.657273 21.084925
645   1  0.8200 37.614672  9.443129 23.909546
646   1  0.8200 19.196045 10.376473 22.009686