LAMMPS data file via write_data, version 29 Aug 2024, timestep = 121010, units = metal

3888 atoms
4 atom types

-3.2007673789160984 36.32191337891487 xlo xhi
-3.298489456099497 37.430851456097926 ylo yhi
-4.943485486419447 56.09806348642078 zlo zhi
3.057890017151455 15.97885357381931 5.789915350995445 xy xz yz

Masses

1 85.4678
2 6.941
3 28.0855
4 15.9994

Pair Coeffs # buck/coul/long

1 1388.77 0.3623 0
2 1388.77 0.3623 0
3 1388.77 0.3623 0
4 1388.77 0.3623 0

Atoms # charge

2877 1 0.82 0.5370438129986486 0.559888858626211 -0.007153456185257003 0 1 0
2077 4 -1.1975 1.2129637016112227 2.44919414048345 2.8067706124350535 1 1 0
3776 4 -1.1975 -1.1467224065179393 4.178190161931292 -3.371850945064436 1 1 1
879 4 -1.1975 1.2352417760835577 0.43138564063130236 -3.372979761170765 0 0 1
1341 4 -1.1975 3.3651035969891856 1.4627944197335117 -0.06947425311771196 0 0 1
1608 4 -1.1975 3.82234809835896 0.07356913985070346 4.2784081747095986 1 -1 1
2710 2 0.525 4.120173706580126 4.346779674547887 0.15548185342880655 0 2 1
3573 4 -1.1975 3.155392371582262 5.004338786087842 -3.023762264038133 1 0 1
2943 3 2.1 3.5088435034046404 2.7961724307549582 4.090922290869577 0 0 1
2377 1 0.82 0.8452758573044727 0.12676890930262408 4.593059001778841 0 0 1
2333 4 -1.1975 3.320570915005673 5.50401567973294 3.885464024111894 0 0 0
1315 1 0.82 1.2664195524871218 3.6236648744333255 -1.2389398278245793 0 0 1
1490 2 0.525 1.3029555947960487 5.382687383603494 1.6352806702433131 0 0 1
3448 1 0.82 3.4666108915415075 -0.792373446099639 -1.771644493242748 0 1 1
41 1 0.82 0.71330979222164 6.514678956569383 -3.881242262366491 1 0 0
1598 1 0.82 -1.644134452141323 1.299122008012266 -2.4590386623527367 1 0 0
1661 2 0.525 4.52110965809024 2.2750354003012054 -2.705055463717537 1 0 1
3005 4 -1.1975 -0.2454194985027387 6.6930473565728255 -0.7560224802896891 0 0 0
305 1 0.82 2.9831138664694787 -0.914541216736616 1.8108923877397647 0 0 0
74 3 2.1 4.253329203406346 7.342063249531274 -2.3311491108047044 -1 0 0
2458 1 0.82 -0.703383705662993 -2.207263635439194 -2.9897168554202795 0 1 0
3203 2 0.525 2.7602995355319493 -2.710168013874996 -4.558665365998267 1 0 0
2084 4 -1.1975 3.506636087335865 7.483411245037494 0.23665742617626292 1 0 0
4 4 -1.1975 1.1722751132238303 -2.258264701608054 -0.630351318102857 0 0 0
3466 1 0.82 1.3543984368363535 3.112688629424226 -4.635878644919761 0 0 1
3719 2 0.525 0.3190546372105394 6.931315637576968 4.374251774859727 -1 0 1
597 4 -1.1975 5.591225142029795 3.256219071075675 2.5087142249100203 0 -1 0
2994 1 0.82 5.736887839206999 6.364388769292822 2.091376810345847 1 0 0
350 4 -1.1975 -2.4582226709643717 -0.05205409484794421 -4.868359087751675 0 0 0
662 4 -1.1975 4.789029236611618 7.641595826168527 -4.937818499323326 0 0 0
728 4 -1.1975 6.018820818514562 -2.013257798131718 1.8372718286493184 0 0 0
608 4 -1.1975 -1.2562718164495084 2.9941956356478814 0.13635638203924397 1 0 0
669 1 0.82 6.014980220963461 -1.8428470815097087 5.166650430201252 1 0 0
3062 2 0.525 5.966260733446211 -1.6782533931302537 -4.322319997901734 2 1 0
1935 1 0.82 6.118712289050511 0.6017314441242849 0.6067376879017036 0 0 1
260 2 0.525 6.147032570837989 4.722235635107533 -4.178072515765999 0 0 0
1128 4 -1.1975 6.335443307021841 5.953339081275609 -1.3299063830161524 -1 0 1
75 4 -1.1975 11.47557449135897 -0.32659706231099905 2.682008493704209 0 0 0
3333 1 0.82 6.741958883100881 1.0032796604562817 3.7996341692858677 0 0 1
1747 4 -1.1975 8.9743782221888 1.5268153404664222 1.327674185182003 0 1 1
1249 2 0.525 7.2583000462251634 3.0460641194499996 -0.9914441437045545 2 0 0
2223 2 0.525 8.40435168361347 4.458637381403538 1.780520767065768 1 1 0
3093 3 2.1 11.040656169422 2.3284181160178905 3.1261646978872593 1 0 0
1412 1 0.82 10.7105161788345 2.0971395446478516 -1.249387613309478 1 0 1
1811 4 -1.1975 11.522556582672934 4.1217195500237835 0.6853835122874279 0 0 1
3073 3 2.1 11.93559392144656 6.209739074938434 2.4016444663303527 0 0 0
1794 4 -1.1975 9.527400324514439 7.232646842200761 1.5047587325291503 0 0 1
2602 4 -1.1975 7.449934196160117 0.08805508147585028 -2.2710519732666983 1 1 0
2422 2 0.525 9.398760806210223 5.519155405549717 -1.4137142128548335 0 1 0
1848 2 0.525 9.936985627354208 -0.9261659770605029 -0.34191898453332836 0 0 1
3825 4 -1.1975 13.040906935907039 0.0747286508655276 -1.1489839610831019 0 1 1
634 1 0.82 13.892082479854462 1.3516265721404386 1.3671455595892954 1 0 0
1758 4 -1.1975 10.63235900623231 4.951281442237462 4.273166817204346 1 0 1
3000 1 0.82 12.919626887909281 -2.265895456850051 -3.2634885149444615 -1 0 1
1632 4 -1.1975 13.582004540524203 1.5208155371735144 4.502136767635752 0 0 1
1463 4 -1.1975 9.05578034139247 3.3937274051357322 -3.5497345197384944 0 0 1
79 1 0.82 12.721132812496009 5.437338522843073 -2.3188890479421223 0 0 0
1407 4 -1.1975 11.082525456479562 7.711836185121963 -3.5221619083993363 0 0 1
3862 4 -1.1975 11.007729632698258 0.41621830462210063 -3.8728242362845746 -1 1 1
124 1 0.82 9.637305610602908 -2.2722141701696827 -3.6171025348374974 0 1 0
1521 3 2.1 13.574609326885145 1.2900409275940312 -3.5297900353207177 1 0 1
538 4 -1.1975 13.548445365681218 7.389683739001421 0.5704536351885681 0 0 0
3268 4 -1.1975 13.805831822909155 4.3715270632638905 3.071489804571234 0 0 1
374 1 0.82 8.900986152957145 -1.345943347032043 3.131311955859376 0 0 0
1447 4 -1.1975 14.848503375744382 3.0195860281062323 -2.083236485374303 -1 1 1
2486 3 2.1 8.439354380932265 1.0370254859823564 -4.565530301550339 0 1 0
2933 4 -1.1975 12.500859088144612 3.624055865835614 -4.6667095219715335 0 -1 0
718 1 0.82 12.543124887272487 -2.3380354663082197 0.8682515929174568 -1 1 0
1636 1 0.82 8.761725611210224 7.573782886290323 4.396745203926039 -1 0 1
209 1 0.82 13.500847783807302 -1.6729121936616203 4.315141114980572 0 0 0
376 1 0.82 7.152982148883438 -2.596353355606237 -1.0145035223276242 0 0 0
864 2 0.525 7.351709083992918 4.477201738721541 4.912272496983822 1 0 0
3011 2 0.525 7.9862372486209 7.690760806066231 -3.5688512510924233 1 0 1
159 1 0.82 14.672726616584761 4.701838341965515 0.22908839018061913 0 0 0
849 1 0.82 15.425671655860942 -2.1228161540137758 -0.7292888679984815 0 0 0
3235 4 -1.1975 15.448299696430638 -0.7341017113746808 -3.5143305242809295 0 1 1
230 4 -1.1975 9.185453570856243 1.9804731707870822 4.861523296333774 1 0 0
2020 4 -1.1975 15.350987361657353 -1.132502693035926 2.010456700416877 0 1 0
990 4 -1.1975 15.288277067311487 6.931608087577831 -2.563752156429472 0 0 1
721 1 0.82 15.564409400192378 4.745982020244624 -4.694297967978489 0 -1 1
953 4 -1.1975 18.66242800350392 5.041612490711464 -4.19540020874911 1 0 0
3547 2 0.525 15.702689397307854 6.78874324814577 2.8030401160468483 1 0 0
432 2 0.525 17.5352656705187 4.919463354163985 -1.2190123867734088 0 1 0
2306 1 0.82 16.623891922352097 1.0551122149605572 -0.6163410022526041 1 0 0
1715 4 -1.1975 19.66249963087461 1.9492389435841337 -1.6630158538423394 0 0 1
2934 2 0.525 20.063897102773307 2.0583544149804345 1.2614810081985122 1 1 1
2967 4 -1.1975 16.804094597892718 3.1317140365275398 1.5308752331632216 0 1 0
1525 1 0.82 18.105422301246325 -0.4070823023149135 1.9378594941833298 0 1 1
3695 2 0.525 20.45619748587809 3.4265256847632113 4.393298970518674 0 1 1
2138 3 2.1 20.363918380316637 -0.5906856017852413 -2.393643610708057 0 1 0
220 1 0.82 17.365274902852068 2.2620299844170972 -3.4948939876388696 -1 0 0
3412 4 -1.1975 18.00021447210128 1.2958549660873535 4.14557370775133 1 1 0
2015 4 -1.1975 21.81154452118543 4.674655474009464 1.6859313759385017 -1 1 0
1350 1 0.82 18.7058686102159 5.322771999641964 2.216135056626404 1 0 1
1053 3 2.1 15.921510284918519 3.020097822258835 4.1545346585582665 0 -1 0
3854 4 -1.1975 22.288026749235122 -0.9716988611532678 -0.5130357999161836 0 1 1
1702 2 0.525 20.848502049282022 4.723342030985395 -1.4445488415588732 0 0 1
1814 2 0.525 20.801675339730114 0.16307811682531392 4.623399415704456 0 1 1
2478 1 0.82 22.455758467164856 6.452695068023028 4.099908624365254 0 0 0
2442 2 0.525 22.845782561135646 2.15755755475592 -1.6566550767176453 0 1 0
1243 4 -1.1975 22.696322959415145 1.0062499930007993 2.3873833259602466 0 0 1
3657 4 -1.1975 22.14498753106131 7.424777253173711 -2.2622819121520013 0 1 1
354 4 -1.1975 18.358735584686286 -1.3815547285549408 -0.826339743384721 0 1 0
3725 4 -1.1975 22.26137081678911 0.3949120612103525 -4.189965212122686 -1 1 1
1688 3 2.1 24.043683417955506 3.338304658458938 2.5797619416544673 -1 1 1
740 1 0.82 20.493274702353062 2.720037534241217 -4.468596239166387 0 0 0
1163 2 0.525 20.77354076362489 7.398270244165931 0.5307569265456937 0 0 1
2776 1 0.82 21.42335821993897 6.1429388111559815 -4.751108409370384 0 1 1
1651 3 2.1 22.59256389889812 -1.774678246549432 2.0352224274525055 0 0 1
1169 4 -1.1975 18.81377562620571 -0.011142851711041235 -4.552799265185027 -1 0 1
2313 2 0.525 24.20097540940872 0.4576921872942874 4.963544316138367 0 0 0
3101 1 0.82 23.852644759418833 6.090137432140227 -0.11595676024750334 -1 1 1
2209 1 0.82 24.384576962853924 -0.9602034777137942 -2.7006874669803413 0 1 0
1374 4 -1.1975 17.775733880769852 4.723539026492047 5.0834350744767685 -1 0 1
1042 4 -1.1975 20.133429228324648 -2.304143671264134 2.6235813017075715 0 0 0
2293 4 -1.1975 20.96689750689348 -3.102643120069244 -2.9559232211238653 1 1 0
3660 4 -1.1975 17.598354537329374 7.724018667784018 0.4454864583041679 0 1 1
1155 4 -1.1975 19.769626122117874 7.912571289003668 3.3701618460730653 0 0 0
3864 2 0.525 17.287107824321673 7.762107042637417 5.411390358251056 -1 1 1
1607 4 -1.1975 36.42161503979446 13.361259429529223 8.733615127278759 0 0 1
2034 4 -1.1975 24.930183686613173 3.455183398987838 0.05030488381522696 0 1 0
1976 2 0.525 24.90446999683078 0.4755926125058565 0.22445979680857614 0 1 0
422 2 0.525 25.59669630670836 4.195582292679404 -2.985336018836668 0 1 0
754 2 0.525 29.2282062125373 6.695413994777904 -3.99416170085203 0 -1 0
306 1 0.82 31.503004367263507 2.281619793674026 -4.146012567439831 0 0 0
3428 4 -1.1975 25.285874588721732 -1.80993975203357 2.241865538221235 1 0 1
1645 4 -1.1975 25.939631330950505 1.1170145617100333 -3.8306728882990715 0 0 1
1475 1 0.82 25.268107350784707 7.523049938686998 -2.9084505788608954 0 1 0
2807 3 2.1 27.451322438429433 -0.32743851862499085 2.4330753660576177 -1 1 0
407 4 -1.1975 32.273841389043 -1.023457744768952 -3.916248892510166 0 0 0
1857 4 -1.1975 27.799908295780284 -0.60180719752631 -0.11881391703018056 0 0 1
212 4 -1.1975 26.335164684339386 1.9702335715776087 2.9733320634531406 0 0 0
2297 4 -1.1975 27.394426761221606 5.956945572689164 -1.4135719122672787 0 1 0
2480 4 -1.1975 29.75735332349783 -1.573334912573931 2.418481677444491 0 0 0
1263 3 2.1 30.562893930383588 0.1131439320520502 0.036997661055248064 0 0 1
1901 3 2.1 32.42344676776718 2.8047386736301023 2.1810749970114265 0 0 1
2078 1 0.82 27.325362914212448 2.097377911280012 -1.3145707138350227 -1 1 0
774 4 -1.1975 31.628067622205585 4.923220537797088 0.7750924293855171 -1 0 0
1723 1 0.82 29.858716528328323 4.258002627407757 -1.5697951323453647 -1 0 1
9 4 -1.1975 32.89087290026947 0.24719940456235 1.6211084063439574 -1 0 0
2657 3 2.1 29.59575411197782 -1.8273122649774218 -3.116138782550328 -1 1 0
1478 1 0.82 27.704320964539903 4.344837702515432 1.3309397461467376 -1 0 1
1854 4 -1.1975 29.622887839104756 1.9035914622574195 1.773046548782224 0 0 1
3557 4 -1.1975 29.585414205930363 0.7649247639985743 -2.523990334761787 -1 1 1
1244 4 -1.1975 25.35650767610098 5.7715437524556075 3.043492244260839 0 0 0
1327 2 0.525 29.85229433212232 4.4825423324869 3.961617802212624 0 0 1
1434 4 -1.1975 31.10109341063196 -2.3596464836610096 -0.9144222860595029 0 0 1
2003 4 -1.1975 29.171115694285646 6.893236174030414 1.938186404559738 -1 1 0
3665 4 -1.1975 32.99001642585793 5.248409838628397 3.5559275957741097 -1 0 1
493 4 -1.1975 28.55763141770743 3.8302640595189397 -4.2878662037905455 0 0 0
2569 4 -1.1975 32.121968811821745 5.429999579304023 -3.4693416427088417 -1 0 0
576 4 -1.1975 32.27093115921031 2.253440690837957 -0.8918919093315931 0 1 0
942 4 -1.1975 26.987999715261083 -1.0358596323069929 4.94382081943517 -1 0 0
883 4 -1.1975 31.845901178223706 2.2291835847062327 4.746335055223851 0 0 0
3779 2 0.525 31.951947696950754 -0.6674453730915015 4.374880495862119 0 1 1
2134 3 2.1 33.392956511509965 4.932220470187056 -1.1981285041993344 -1 0 0
1867 4 -1.1975 26.98257664567077 -2.7761768521161994 -2.836117633741351 0 0 1
459 3 2.1 31.86508966132331 7.423988595428077 2.0607564978421378 0 0 0
522 1 0.82 28.262083965303255 7.16021662858008 4.697063761740938 0 0 0
3063 4 -1.1975 32.63667930880537 7.561417364372001 -0.9159089917829487 0 1 1
44 1 0.82 26.526576659484274 7.605395587399673 0.7752310746310487 -1 0 0
282 1 0.82 29.177849636984007 1.0684117410159422 5.004632569355801 0 0 0
3526 2 0.525 33.77393029463833 -0.7741231173032324 -1.2527670840920464 -1 0 1
1477 4 -1.1975 38.30068691293544 -0.25509418642219295 2.2666410705776014 -1 1 1
2201 1 0.82 34.525305776629835 1.2776328648788091 -3.790724304477791 0 0 0
1828 1 0.82 34.96685009515788 -2.0248529426048 -4.245956184575618 0 0 1
832 3 2.1 37.22199403295603 5.028458561005675 -1.1926378250796468 0 0 0
3304 4 -1.1975 36.918378320289584 -1.2422593661398484 -0.9890729615950656 -1 1 1
1711 4 -1.1975 35.321071661070796 3.3178018764881 -1.9856250618077622 0 0 1
3550 4 -1.1975 38.00190126123445 5.034708762029179 2.951808944230849 -1 1 1
2467 3 2.1 38.07225431262208 2.409798553663542 2.730698385258414 -1 0 0
163 2 0.525 35.651602120997715 1.2242739925871913 0.27097761885866717 0 0 0
1724 4 -1.1975 35.496307554381715 6.72671861576509 -2.5806106518798746 0 0 1
2308 4 -1.1975 35.33022941499854 5.738813480660075 0.6071782006392445 -1 1 0
821 4 -1.1975 35.249825050757806 2.8341830695582013 2.7370314637737327 0 0 0
3506 1 0.82 35.42679901121125 -0.41344177462329723 3.4976201719298614 0 1 1
178 3 2.1 35.48430391415125 5.574620787719467 3.201203544557292 -1 0 0
443 2 0.525 37.746924082578396 7.755959754897217 1.6965555841752056 1 -1 0
19 4 -1.1975 37.56520661594452 1.5084193359022784 5.26409353681928 0 0 0
2226 1 0.82 0.12542215229845421 11.097482431896637 -2.8570675870964757 1 1 0
1833 3 2.1 3.8505930297783513 8.276215243992663 4.490965423096687 1 0 1
1949 4 -1.1975 1.8202757643973682 9.04985185337604 2.8052922544136076 1 -1 1
1342 3 2.1 1.2489470149523871 8.896816331726352 0.1567230013079101 0 0 1
1096 4 -1.1975 3.0636545264911144 12.170310931216374 3.2443512205492535 1 0 0
2169 4 -1.1975 1.942100398080222 11.56109117124361 0.22672687521997575 0 0 0
2559 4 -1.1975 2.0829657235849526 8.931051578476985 -2.384229536788731 0 0 0
116 3 2.1 3.332704892026709 14.070013501923796 1.2908547497481893 0 -1 0
255 4 -1.1975 0.9496654412027867 14.713786252871603 2.382923075591824 0 0 0
640 1 0.82 3.600721854955588 12.041853087773315 -2.507772412209978 2 -1 0
2439 4 -1.1975 2.7225232225980163 14.784623886591671 -1.2979904654072667 0 0 0
2549 1 0.82 4.595956887173076 10.394166005169708 0.7286165915320056 1 0 0
2341 3 2.1 0.4098013485368823 11.824132702411315 2.9500362080990343 1 0 0
784 4 -1.1975 4.331054443971836 16.426297558310512 1.004029773044316 1 0 0
1416 2 0.525 3.9535532974186145 14.877182170946742 -4.267194483969207 0 0 1
2728 4 -1.1975 4.314097821056237 15.14647060664469 4.115800402434233 0 0 0
434 2 0.525 0.5374087052445189 14.858548396927006 -3.278269725775136 0 0 0
26 2 0.525 0.44837253877473193 16.906934385037275 -0.22005885227968244 1 0 0
813 4 -1.1975 5.554450905784564 9.681155676055639 -2.5206473044469337 0 0 0
1752 2 0.525 -0.21838131469246091 13.525997051886584 -0.26752621013833167 0 0 1
775 1 0.82 2.0943584507295228 17.658729391360644 2.6868004739182667 0 -1 0
2499 4 -1.1975 1.5846225013528379 12.556895027763698 -4.784284705312664 0 1 0
1077 4 -1.1975 6.106178112666352 9.179033298886022 2.890352514148454 1 0 0
2573 2 0.525 1.1438014721946992 15.831653832892659 5.305011035225226 0 0 0
185 2 0.525 6.07394299610018 12.099997940043618 3.4119595539675798 -1 -1 0
2038 4 -1.1975 5.917508353402709 13.285566700212378 0.606731199056366 0 0 0
1835 1 0.82 11.119033769373967 8.15841996002393 -0.682819081698594 -1 1 1
3473 2 0.525 13.445085738913576 17.573456609787026 3.6491086587622963 0 0 1
2640 3 2.1 6.650281692346195 15.878843888215012 -0.11451737470134771 0 0 0
1930 4 -1.1975 7.552188832537349 16.461351725294953 2.285944838183986 0 1 1
3057 2 0.525 14.030641722191334 9.096571147742956 -4.3731640470567354 -1 1 1
1957 2 0.525 7.308471036369617 8.515302854344483 -0.17361867597058647 0 1 0
2212 4 -1.1975 11.903944057674718 8.428643350106729 3.6704325453808306 0 1 0
2180 3 2.1 10.696498148807766 10.604682562970364 -3.183933782301274 0 0 0
1496 4 -1.1975 9.95694123000193 13.226249726878425 -2.930942481409365 -1 0 1
2153 1 0.82 8.78185142949393 10.387572549600609 2.1223023100734 0 0 0
1152 4 -1.1975 13.800767578919753 15.228205548312303 -3.8011270277481053 -1 0 0
1216 3 2.1 7.159198983578874 15.281867542624052 4.535644893591781 0 0 0
1078 4 -1.1975 8.875111921595082 13.178477459452196 3.507246247005729 1 0 0
1911 4 -1.1975 9.598344415398543 10.613129414412818 -0.7069783475693886 0 -1 1
446 1 0.82 9.306166830034304 13.557229370519423 0.43184556411408337 0 0 0
2487 4 -1.1975 12.02580925815165 13.464043853733482 1.4350409218875069 1 0 0
2572 4 -1.1975 6.517687156689266 14.784850433609463 -2.4889299958129554 1 1 0
2288 1 0.82 7.1432966972819925 11.907120318973568 -1.7369278523548077 1 0 0
1048 3 2.1 11.32633242125964 14.293624250287738 3.9575540379680465 0 0 0
17 4 -1.1975 9.42373142810089 16.439763572417398 -0.5113564429599833 -1 1 0
3692 1 0.82 12.256528587283842 16.386758622229816 0.550712432864651 1 0 1
2196 1 0.82 12.328696050635752 10.440033840096543 1.4458952654822241 0 1 0
3194 4 -1.1975 13.334209388192097 12.067798489927135 3.9219834964632185 0 0 0
1085 4 -1.1975 10.595627364517945 16.667797049116462 3.0700785262376384 1 -1 0
655 1 0.82 12.768870396334737 13.339206412644433 -1.351482880820222 0 0 0
830 4 -1.1975 14.834377105880325 15.342182779695737 1.3030238185534602 1 -1 0
1288 4 -1.1975 13.032861776527664 10.311601515149224 -1.6957063107345423 0 0 0
1324 1 0.82 14.563913581943602 9.434936899383075 4.484602450656945 0 1 1
3144 1 0.82 11.001972590375082 15.881981908944176 -2.890871802423411 1 0 0
3858 4 -1.1975 8.415826189185907 10.813931897876127 -4.536765482551772 1 0 1
1483 3 2.1 7.849608341349019 13.875996572821336 -4.604519518680398 0 0 1
3829 1 0.82 14.897579816324367 12.16959638988848 -3.588761181613982 0 0 1
3555 4 -1.1975 8.633778078931268 16.476122859439997 -4.788031861096933 0 1 1
3691 2 0.525 10.431716951510275 10.741228080011869 4.897656282682186 -1 1 1
1494 3 2.1 15.095523470429004 12.822362365029708 1.9237499763260568 0 1 1
90 3 2.1 15.394463711446758 9.0089615519816 -0.8245826083476371 0 0 0
5 4 -1.1975 15.706564317404936 12.346349254387384 -0.7012602070694701 0 0 0
2151 2 0.525 19.065786495488304 7.823851593124814 -2.4135457085585648 0 0 0
1283 2 0.525 21.019483782408322 14.317890381489068 -3.9547926750261375 -1 0 1
3523 2 0.525 16.134680952012083 15.160221318606514 -1.5965478339923524 1 1 1
1185 4 -1.1975 15.621379785868182 10.094493556249322 1.6898498513092586 -1 0 1
2206 1 0.82 22.240706971483778 9.508709464767179 2.7463750920287096 0 1 0
3356 4 -1.1975 22.624613569014652 12.672180302816077 -1.3210064616058446 -1 0 1
3256 4 -1.1975 20.42702019413356 10.814094881425813 -3.284151432644467 -1 1 1
656 4 -1.1975 17.176265876942733 10.121020446507128 -2.655447957976569 -1 0 0
2281 4 -1.1975 18.008067969298036 12.674468921563182 1.4896863659481137 -1 1 0
1055 3 2.1 18.588636643845767 12.25664322302709 -1.3391269032351003 0 0 1
901 3 2.1 18.38538818084664 9.929994168627903 2.0883178120663515 1 0 0
3756 4 -1.1975 19.888717331859617 14.863018290255532 -1.0862448406334295 0 1 1
575 4 -1.1975 20.152422834256512 10.400802740774473 0.05408500242771472 0 0 0
2384 1 0.82 20.76035424374727 13.927382411137351 1.5605964777650048 -1 0 0
488 4 -1.1975 16.20192346889238 13.650299438890134 4.268968926247758 0 0 0
841 1 0.82 17.64574669213927 15.688196550640388 1.6228918702405135 0 0 0
3649 4 -1.1975 22.80417934276535 16.060478000849546 1.449002631462051 0 0 1
2022 3 2.1 23.160088281096776 15.216161817087109 -1.1184738471611182 -1 1 0
307 4 -1.1975 20.58273352002415 11.740249458034896 3.364966723455355 0 0 0
3599 3 2.1 22.397597068667817 10.058889992842197 -1.6889851609243356 0 1 1
1755 2 0.525 23.61339987711815 12.134436486638581 1.3978261266573764 0 0 1
2521 2 0.525 22.462206384130003 15.641493560655945 4.591354547790962 1 0 0
1390 4 -1.1975 23.777841950776317 9.074917617826042 0.3794278113011784 0 0 1
1782 4 -1.1975 24.0920565666631 15.031258011550104 -3.588898938961005 -1 0 1
2441 4 -1.1975 17.951623264134994 13.336191103812272 -3.8200215584448496 1 0 0
1667 1 0.82 18.491511042522173 16.290644757394904 -3.572769985690873 0 0 1
3871 4 -1.1975 19.355329165445045 15.49094010917472 4.3470237167230055 -1 0 1
1089 4 -1.1975 17.530264374286414 10.5818666487914 4.58646336464381 0 0 0
2429 2 0.525 20.088239823943308 17.41294402442844 0.872471458123989 -1 1 0
2264 4 -1.1975 24.262402345645146 10.102615907618997 -3.7484805856939345 0 1 0
479 1 0.82 22.818504112130597 12.197312042437456 5.157464940729048 0 0 0
2339 2 0.525 16.243227533465504 16.5764249554624 4.771808714659998 1 1 -1
2712 1 0.82 38.167082108038244 11.132973159415613 7.7072231363085475 0 1 0
2378 3 2.1 18.617180026479446 12.965734841817625 4.739892454636743 0 1 0
2137 1 0.82 37.551505551792594 13.923150542333413 5.650588171813831 -1 0 0
1968 1 0.82 29.67151495868299 8.0380830410415 -0.8896138288809121 0 1 0
3574 3 2.1 33.23117754253175 8.131650527387428 -3.5742750854486736 -1 1 1
2037 4 -1.1975 31.182061031430017 8.046965910749396 4.543172465021345 -1 1 0
2443 4 -1.1975 25.47020225720617 11.954248839921618 3.750805242123312 0 1 0
3029 1 0.82 31.318297194540342 17.278616018880733 0.25906940074672513 0 0 0
1806 4 -1.1975 31.580715605289924 9.948295714636277 1.1423421903560338 0 0 1
2516 2 0.525 31.315712505058492 12.919571868919657 -3.9892066199639613 -1 0 0
2966 2 0.525 28.67138091347313 9.802765460345864 2.5347149597635865 -2 0 1
3629 2 0.525 28.4874458558353 14.736396939732028 -2.101583357289341 -1 0 1
3436 3 2.1 31.92022681809977 12.466028806462848 1.7088367954324235 0 1 1
2756 4 -1.1975 27.211244356515547 9.9049224262901 -0.6702459489818271 0 1 0
2141 2 0.525 25.201737615138047 14.912151506924037 2.644383540207842 0 0 0
404 1 0.82 25.655943612254628 12.161772860968863 -2.140451783770036 1 0 0
2140 4 -1.1975 25.669164940344245 14.554516963629595 -0.37329318656562066 0 1 0
1320 1 0.82 29.515186683038785 11.544804718005487 -1.191958190601852 1 0 1
3431 4 -1.1975 29.522414245840352 12.601111582646428 2.3627754223772093 0 1 1
588 2 0.525 26.87291573876637 12.19835183562154 1.0834445998200617 0 0 0
145 2 0.525 25.480790497478996 8.962869705926007 3.425250351323514 0 0 0
65 2 0.525 32.73876053622426 11.158679592697165 -1.5546153933871112 0 0 0
2850 4 -1.1975 33.18367591379394 11.912080582984853 3.957106918427733 -1 0 0
3775 4 -1.1975 32.38011497956613 15.008188407250202 2.1036708182037382 -1 1 1
134 4 -1.1975 31.440347185687926 13.98750043512661 -0.7891658716748596 1 -1 0
1237 2 0.525 28.777867036282814 15.265399736272602 1.0621386599298996 0 0 0
569 4 -1.1975 29.226055468041572 17.006752505826647 3.474998389438782 -1 0 0
2026 4 -1.1975 30.898333808668987 9.365435601158634 -3.5491415187657998 -1 0 0
528 2 0.525 31.054912418616077 14.055192220180185 4.88320804125635 0 0 0
357 2 0.525 32.153593723429985 15.997074381098432 -3.5510687463130997 0 0 0
353 2 0.525 27.642004646357762 9.491685811848917 -3.600200026044639 0 1 0
300 1 0.82 32.458261663542814 17.00997882806858 4.424258950911631 1 0 0
3662 2 0.525 26.453195741903166 16.76572353985103 4.876021512863955 1 0 1
1896 2 0.525 27.903872557380982 14.057010391680954 4.207508864345077 -1 0 1
438 4 -1.1975 28.073360620562447 12.369547846945974 -3.769568364421434 0 0 0
1528 2 0.525 26.027650285666184 17.409688231032433 0.20139696419665312 0 0 1
2770 2 0.525 29.21969329470717 16.965287377820463 -4.488062896627928 -2 0 0
2990 1 0.82 37.65689835328156 8.617038295497498 -2.5927795662542876 0 1 1
3056 3 2.1 34.16313028228594 15.100772187562107 -0.10117520756391338 0 0 0
927 4 -1.1975 34.46395860769062 13.834381079960437 -2.5779884361856578 0 0 0
2205 4 -1.1975 37.557092301972176 12.984995186933645 -3.652384317310024 0 1 0
3310 4 -1.1975 34.55628964235574 17.304365582896185 1.4069627815754013 0 0 1
1893 2 0.525 34.912090023948224 14.812793163275629 3.750175595281761 0 -1 1
3369 4 -1.1975 34.47953237693768 12.296644225949684 0.9625226305690592 0 1 1
590 4 -1.1975 38.35217625143092 10.146349848597733 0.01691621188915098 -1 0 0
788 4 -1.1975 34.81778381308298 8.37712728432285 3.048372240005383 -1 0 0
3479 1 0.82 35.039032241474814 8.988000512387618 -0.045468628817585635 -1 1 1
1928 3 2.1 35.71000176548332 11.073744065772736 3.1175659856236337 -1 -1 1
2482 4 -1.1975 36.867412508478964 15.208656036728875 -0.5446602630724616 -1 0 0
2902 4 -1.1975 35.04963969451603 10.166063285849667 -3.0602246462264713 0 1 0
429 1 0.82 37.63596381725766 16.075383408684257 2.266501550541784 -1 0 0
2096 1 0.82 36.488113725752825 12.090956968366076 -1.0454634529851814 0 1 0
259 4 -1.1975 37.4442736659596 13.03576821612138 2.731528811983762 0 1 0
3565 4 -1.1975 38.206154484932604 9.926995347805768 3.6975974056486094 0 1 1
3749 3 2.1 36.58444328191063 15.644023032831704 -3.120406304749393 0 0 1
3594 3 2.1 35.04393256304475 12.346509745473849 -4.804318885118225 0 1 1
51 4 -1.1975 34.49397969948792 17.16948683496892 -2.1399745927858493 0 0 0
3157 4 -1.1975 3.563584743054541 3.0777504084895613 14.799856930654004 1 0 0
3667 4 -1.1975 2.4047601907728886 7.160566725649985 6.728953312725531 -1 0 1
329 4 -1.1975 2.270387237063864 2.610804118091509 6.463288602210377 1 0 0
842 2 0.525 1.837901359949262 4.6988732033182545 8.781067808114559 0 0 0
223 1 0.82 3.4394670625463863 -0.3936116814131414 7.337844504283411 1 1 0
2930 1 0.82 3.0578678562652177 4.241260955520058 12.076353227519535 0 0 0
76 1 0.82 4.2375700496652735 2.1995191520731785 9.224277751735452 0 0 0
1425 4 -1.1975 4.729437266219257 5.46087570575716 9.865010530709881 0 0 1
2451 1 0.82 4.53735157445129 4.916873257850255 6.837447512448869 1 1 0
1960 2 0.525 5.114575378685436 1.4142497694878662 12.37689910462994 2 1 0
3868 4 -1.1975 3.6308149045524836 -0.7496957968700091 10.503787187703248 0 1 1
2163 1 0.82 2.1918757236422843 7.330643723355268 10.885692194408955 0 0 0
3248 4 -1.1975 3.3593430631598604 6.8245084258566875 13.586894188845493 1 0 0
802 3 2.1 4.923029390210412 5.318615088133153 15.178893921257155 2 0 0
2901 4 -1.1975 5.65000482897486 1.9189347495123767 6.46777515444555 0 1 0
3848 4 -1.1975 0.7518281756861112 -1.727794236894855 6.830919164449484 1 1 1
2049 4 -1.1975 5.987871469344722 7.162621375538424 5.437593412492139 -1 0 0
966 2 0.525 4.063180122455502 -1.3902709358881646 13.55644553849009 0 0 1
3307 4 -1.1975 12.924063157640433 -2.0093399488965638 7.653119270051219 0 1 1
1839 4 -1.1975 6.139213797202054 4.419811448055441 12.951956660927467 1 0 0
3670 4 -1.1975 14.81463064909838 6.185570593307843 6.063720036169163 0 1 1
2391 2 0.525 11.183699763927581 0.0014737101660045049 5.96105024985495 0 1 0
762 2 0.525 6.389210867998204 -0.9666169342038513 9.053709952092596 1 0 0
1246 1 0.82 12.900409859224169 3.93678260858003 6.319180053624216 1 0 0
2836 4 -1.1975 7.347316635309755 1.7119341443998213 10.087052299597042 0 1 0
2144 4 -1.1975 8.316868406494173 -0.7695383524670856 6.720149807075762 0 0 0
3305 2 0.525 8.272297474985656 1.945661773986413 13.545480048581531 0 1 0
585 1 0.82 10.703624313106406 1.7585440578750662 10.619761500053615 0 1 0
2758 1 0.82 6.916829223221799 7.197857002025329 8.081640167698197 0 0 0
2407 4 -1.1975 7.466577412253062 4.303588067607066 8.057231661911587 1 1 0
3237 3 2.1 8.177206077481557 1.8701235154444982 7.337609823372281 0 1 1
405 1 0.82 12.53299915198874 1.4936240973179498 13.299180767103927 0 0 0
3096 3 2.1 7.379357542352941 4.44152701798723 10.65432780721154 0 1 0
1173 2 0.525 9.985936163845402 5.580830031046925 7.392057463548402 0 0 1
3593 4 -1.1975 8.472656574132337 6.879278933868016 10.64860708918772 1 1 0
639 1 0.82 11.960089260049802 4.779706922826043 10.04531710448783 1 0 0
1584 4 -1.1975 10.705770070730992 2.554122942462749 7.942192473189229 0 1 1
3803 4 -1.1975 9.659132946308151 4.092190649750067 11.871760653160743 0 1 0
2360 1 0.82 14.700334198557034 7.101855947829873 11.94521268678128 0 1 0
2765 2 0.525 11.252539192410499 6.963751586277955 12.541407429276688 1 0 0
2520 2 0.525 13.417275514523144 1.0592102053344155 8.00404821717508 -1 1 0
630 4 -1.1975 13.388833739143184 4.56479852742056 12.882238984892682 0 0 0
478 1 0.82 8.248577569383006 6.570263989690754 13.909385845056779 0 0 0
2100 4 -1.1975 14.041804782012509 1.3024696438316798 10.882106695208236 0 1 0
1798 2 0.525 10.616638026767248 4.001714523162129 14.71716810961306 1 0 1
321 4 -1.1975 10.08776952238852 -0.3280657379354759 12.321303648254435 1 0 0
1018 2 0.525 10.066894137062881 -1.0953872525916064 9.182601172754003 1 0 0
444 4 -1.1975 14.838940824033074 4.843544744884038 9.505412172555454 0 0 0
2664 2 0.525 7.347282121639425 -1.5920318643477482 12.198777665924634 1 0 0
239 2 0.525 13.795242902599362 6.435831469312077 15.235284958938118 0 -1 0
2614 4 -1.1975 7.558962396934883 -0.6171796991543701 15.262786554515623 0 0 0
610 4 -1.1975 11.905802890483784 7.811466516837359 9.57854291305125 -1 0 0
3176 3 2.1 10.168033177864793 -1.3282636062035849 14.689645873628791 1 1 0
2913 1 0.82 15.377645666783582 -0.8857070531657065 13.544518126461387 0 0 0
2636 1 0.82 12.971848526115185 -1.6704669033595718 10.809648231292874 0 1 0
884 1 0.82 14.793189008529684 7.847533928164611 8.627947106570453 0 0 0
1934 4 -1.1975 23.35517505917284 3.679749155979933 5.1881719511450735 0 1 1
335 1 0.82 16.01010415772082 -0.20350813098931386 5.782443197462336 0 0 0
1025 4 -1.1975 15.460587334254107 2.148513624061416 14.115793907037048 0 0 0