Generated by pymatgen.io.lammps.data.LammpsData

3888  atoms

   4  atom types

0.000000 34.712615  xlo xhi
0.000000 35.295938  ylo yhi
0.000000 54.144101  zlo zhi
2.081906 15.202832 5.344110  xy xz yz

Masses

1  132.905452
2    6.941000
3   47.867000
4   15.999400

Atoms

1     1  0.7900  4.839287  5.653356  6.464699
2     1  0.7900  7.373092  6.544041 15.488716
3     1  0.7900  9.906898  7.434726 24.512733
4     1  0.7900 12.440703  8.325411 33.536749
5     1  0.7900 14.974509  9.216096 42.560766
6     1  0.7900 17.508314 10.106781 51.584783
7     1  0.7900  5.186271 11.536012  6.464699
8     1  0.7900  7.720077 12.426697 15.488716
9     1  0.7900 10.253882 13.317382 24.512733
10    1  0.7900 12.787688 14.208068 33.536749
11    1  0.7900 15.321493 15.098753 42.560766
12    1  0.7900 17.855298 15.989438 51.584783
13    1  0.7900  5.533256 17.418669  6.464699
14    1  0.7900  8.067061 18.309354 15.488716
15    1  0.7900 10.600867 19.200039 24.512733
16    1  0.7900 13.134672 20.090724 33.536749
17    1  0.7900 15.668477 20.981409 42.560766
18    1  0.7900 18.202283 21.872094 51.584783
19    1  0.7900  5.880240 23.301325  6.464699
20    1  0.7900  8.414045 24.192010 15.488716
21    1  0.7900 10.947851 25.082695 24.512733
22    1  0.7900 13.481656 25.973380 33.536749
23    1  0.7900 16.015462 26.864065 42.560766
24    1  0.7900 18.549267 27.754750 51.584783
25    1  0.7900  6.227224 29.183981  6.464699
26    1  0.7900  8.761030 30.074666 15.488716
27    1  0.7900 11.294835 30.965351 24.512733
28    1  0.7900 13.828641 31.856036 33.536749
29    1  0.7900 16.362446 32.746721 42.560766
30    1  0.7900 18.896251 33.637406 51.584783
31    1  0.7900  6.574209 35.066637  6.464699
32    1  0.7900  9.108014 35.957322 15.488716
33    1  0.7900 11.641820 36.848007 24.512733
34    1  0.7900 14.175625 37.738693 33.536749
35    1  0.7900 16.709430 38.629378 42.560766
36    1  0.7900 19.243236 39.520063 51.584783
37    1  0.7900 10.624723  5.653356  6.464699
38    1  0.7900 13.158528  6.544041 15.488716
39    1  0.7900 15.692334  7.434726 24.512733
40    1  0.7900 18.226139  8.325411 33.536749
41    1  0.7900 20.759944  9.216096 42.560766
42    1  0.7900 23.293750 10.106781 51.584783
43    1  0.7900 10.971707 11.536012  6.464699
44    1  0.7900 13.505512 12.426697 15.488716
45    1  0.7900 16.039318 13.317382 24.512733
46    1  0.7900 18.573123 14.208068 33.536749
47    1  0.7900 21.106929 15.098753 42.560766
48    1  0.7900 23.640734 15.989438 51.584783
49    1  0.7900 11.318691 17.418669  6.464699
50    1  0.7900 13.852497 18.309354 15.488716
51    1  0.7900 16.386302 19.200039 24.512733
52    1  0.7900 18.920108 20.090724 33.536749
53    1  0.7900 21.453913 20.981409 42.560766
54    1  0.7900 23.987718 21.872094 51.584783
55    1  0.7900 11.665676 23.301325  6.464699
56    1  0.7900 14.199481 24.192010 15.488716
57    1  0.7900 16.733287 25.082695 24.512733
58    1  0.7900 19.267092 25.973380 33.536749
59    1  0.7900 21.800897 26.864065 42.560766
60    1  0.7900 24.334703 27.754750 51.584783
61    1  0.7900 12.012660 29.183981  6.464699
62    1  0.7900 14.546466 30.074666 15.488716
63    1  0.7900 17.080271 30.965351 24.512733
64    1  0.7900 19.614076 31.856036 33.536749
65    1  0.7900 22.147882 32.746721 42.560766
66    1  0.7900 24.681687 33.637406 51.584783
67    1  0.7900 12.359645 35.066637  6.464699
68    1  0.7900 14.893450 35.957322 15.488716
69    1  0.7900 17.427255 36.848007 24.512733
70    1  0.7900 19.961061 37.738693 33.536749
71    1  0.7900 22.494866 38.629378 42.560766
72    1  0.7900 25.028672 39.520063 51.584783
73    1  0.7900 16.410158  5.653356  6.464699
74    1  0.7900 18.943964  6.544041 15.488716
75    1  0.7900 21.477769  7.434726 24.512733
76    1  0.7900 24.011575  8.325411 33.536749
77    1  0.7900 26.545380  9.216096 42.560766
78    1  0.7900 29.079185 10.106781 51.584783
79    1  0.7900 16.757143 11.536012  6.464699
80    1  0.7900 19.290948 12.426697 15.488716
81    1  0.7900 21.824754 13.317382 24.512733
82    1  0.7900 24.358559 14.208068 33.536749
83    1  0.7900 26.892364 15.098753 42.560766
84    1  0.7900 29.426170 15.989438 51.584783
85    1  0.7900 17.104127 17.418669  6.464699
86    1  0.7900 19.637933 18.309354 15.488716
87    1  0.7900 22.171738 19.200039 24.512733
88    1  0.7900 24.705543 20.090724 33.536749
89    1  0.7900 27.239349 20.981409 42.560766
90    1  0.7900 29.773154 21.872094 51.584783
91    1  0.7900 17.451112 23.301325  6.464699
92    1  0.7900 19.984917 24.192010 15.488716
93    1  0.7900 22.518722 25.082695 24.512733
94    1  0.7900 25.052528 25.973380 33.536749
95    1  0.7900 27.586333 26.864065 42.560766
96    1  0.7900 30.120139 27.754750 51.584783
97    1  0.7900 17.798096 29.183981  6.464699
98    1  0.7900 20.331901 30.074666 15.488716
99    1  0.7900 22.865707 30.965351 24.512733
100   1  0.7900 25.399512 31.856036 33.536749
101   1  0.7900 27.933318 32.746721 42.560766
102   1  0.7900 30.467123 33.637406 51.584783
103   1  0.7900 18.145080 35.066637  6.464699
104   1  0.7900 20.678886 35.957322 15.488716
105   1  0.7900 23.212691 36.848007 24.512733
106   1  0.7900 25.746497 37.738693 33.536749
107   1  0.7900 28.280302 38.629378 42.560766
108   1  0.7900 30.814107 39.520063 51.584783
109   1  0.7900 22.195594  5.653356  6.464699
110   1  0.7900 24.729400  6.544041 15.488716
111   1  0.7900 27.263205  7.434726 24.512733
112   1  0.7900 29.797010  8.325411 33.536749
113   1  0.7900 32.330816  9.216096 42.560766
114   1  0.7900 34.864621 10.106781 51.584783
115   1  0.7900 22.542579 11.536012  6.464699
116   1  0.7900 25.076384 12.426697 15.488716
117   1  0.7900 27.610189 13.317382 24.512733
118   1  0.7900 30.143995 14.208068 33.536749
119   1  0.7900 32.677800 15.098753 42.560766
120   1  0.7900 35.211606 15.989438 51.584783
121   1  0.7900 22.889563 17.418669  6.464699
122   1  0.7900 25.423368 18.309354 15.488716
123   1  0.7900 27.957174 19.200039 24.512733
124   1  0.7900 30.490979 20.090724 33.536749
125   1  0.7900 33.024785 20.981409 42.560766
126   1  0.7900 35.558590 21.872094 51.584783
127   1  0.7900 23.236547 23.301325  6.464699
128   1  0.7900 25.770353 24.192010 15.488716
129   1  0.7900 28.304158 25.082695 24.512733
130   1  0.7900 30.837964 25.973380 33.536749
131   1  0.7900 33.371769 26.864065 42.560766
132   1  0.7900 35.905574 27.754750 51.584783
133   1  0.7900 23.583532 29.183981  6.464699
134   1  0.7900 26.117337 30.074666 15.488716
135   1  0.7900 28.651142 30.965351 24.512733
136   1  0.7900 31.184948 31.856036 33.536749
137   1  0.7900 33.718753 32.746721 42.560766
138   1  0.7900 36.252559 33.637406 51.584783
139   1  0.7900 23.930516 35.066637  6.464699
140   1  0.7900 26.464321 35.957322 15.488716
141   1  0.7900 28.998127 36.848007 24.512733
142   1  0.7900 31.531932 37.738693 33.536749
143   1  0.7900 34.065738 38.629378 42.560766
144   1  0.7900 36.599543 39.520063 51.584783
145   1  0.7900 27.981030  5.653356  6.464699
146   1  0.7900 30.514835  6.544041 15.488716
147   1  0.7900 33.048641  7.434726 24.512733
148   1  0.7900 35.582446  8.325411 33.536749
149   1  0.7900 38.116252  9.216096 42.560766
150   1  0.7900 40.650057 10.106781 51.584783
151   1  0.7900 28.328014 11.536012  6.464699
152   1  0.7900 30.861820 12.426697 15.488716
153   1  0.7900 33.395625 13.317382 24.512733
154   1  0.7900 35.929431 14.208068 33.536749
155   1  0.7900 38.463236 15.098753 42.560766
156   1  0.7900 40.997041 15.989438 51.584783
157   1  0.7900 28.674999 17.418669  6.464699
158   1  0.7900 31.208804 18.309354 15.488716
159   1  0.7900 33.742610 19.200039 24.512733
160   1  0.7900 36.276415 20.090724 33.536749
161   1  0.7900 38.810220 20.981409 42.560766
162   1  0.7900 41.344026 21.872094 51.584783
163   1  0.7900 29.021983 23.301325  6.464699
164   1  0.7900 31.555788 24.192010 15.488716
165   1  0.7900 34.089594 25.082695 24.512733
166   1  0.7900 36.623399 25.973380 33.536749
167   1  0.7900 39.157205 26.864065 42.560766
168   1  0.7900 41.691010 27.754750 51.584783
169   1  0.7900 29.368967 29.183981  6.464699
170   1  0.7900 31.902773 30.074666 15.488716
171   1  0.7900 34.436578 30.965351 24.512733
172   1  0.7900 36.970384 31.856036 33.536749
173   1  0.7900 39.504189 32.746721 42.560766
174   1  0.7900 42.037994 33.637406 51.584783
175   1  0.7900 29.715952 35.066637  6.464699
176   1  0.7900 32.249757 35.957322 15.488716
177   1  0.7900 34.783563 36.848007 24.512733
178   1  0.7900 37.317368 37.738693 33.536749
179   1  0.7900 39.851173 38.629378 42.560766
180   1  0.7900 42.384979 39.520063 51.584783
181   1  0.7900 33.766466  5.653356  6.464699
182   1  0.7900 36.300271  6.544041 15.488716
183   1  0.7900 38.834077  7.434726 24.512733
184   1  0.7900 41.367882  8.325411 33.536749
185   1  0.7900 43.901687  9.216096 42.560766
186   1  0.7900 46.435493 10.106781 51.584783
187   1  0.7900 34.113450 11.536012  6.464699
188   1  0.7900 36.647255 12.426697 15.488716
189   1  0.7900 39.181061 13.317382 24.512733
190   1  0.7900 41.714866 14.208068 33.536749
191   1  0.7900 44.248672 15.098753 42.560766
192   1  0.7900 46.782477 15.989438 51.584783
193   1  0.7900 34.460434 17.418669  6.464699
194   1  0.7900 36.994240 18.309354 15.488716
195   1  0.7900 39.528045 19.200039 24.512733
196   1  0.7900 42.061851 20.090724 33.536749
197   1  0.7900 44.595656 20.981409 42.560766
198   1  0.7900 47.129461 21.872094 51.584783
199   1  0.7900 34.807419 23.301325  6.464699
200   1  0.7900 37.341224 24.192010 15.488716
201   1  0.7900 39.875030 25.082695 24.512733
202   1  0.7900 42.408835 25.973380 33.536749
203   1  0.7900 44.942640 26.864065 42.560766
204   1  0.7900 47.476446 27.754750 51.584783
205   1  0.7900 35.154403 29.183981  6.464699
206   1  0.7900 37.688209 30.074666 15.488716
207   1  0.7900 40.222014 30.965351 24.512733
208   1  0.7900 42.755819 31.856036 33.536749
209   1  0.7900 45.289625 32.746721 42.560766
210   1  0.7900 47.823430 33.637406 51.584783
211   1  0.7900 35.501388 35.066637  6.464699
212   1  0.7900 38.035193 35.957322 15.488716
213   1  0.7900 40.568998 36.848007 24.512733
214   1  0.7900 43.102804 37.738693 33.536749
215   1  0.7900 45.636609 38.629378 42.560766
216   1  0.7900 48.170415 39.520063 51.584783
217   1  0.7900  3.826939  1.119985  2.559318
218   1  0.7900  6.360744  2.010670 11.583335
219   1  0.7900  8.894549  2.901355 20.607352
220   1  0.7900 11.428355  3.792040 29.631369
221   1  0.7900 13.962160  4.682725 38.655386
222   1  0.7900 16.495966  5.573410 47.679403
223   1  0.7900  4.173923  7.002641  2.559318
224   1  0.7900  6.707728  7.893327 11.583335
225   1  0.7900  9.241534  8.784012 20.607352
226   1  0.7900 11.775339  9.674697 29.631369
227   1  0.7900 14.309145 10.565382 38.655386
228   1  0.7900 16.842950 11.456067 47.679403
229   1  0.7900  4.520907 12.885298  2.559318
230   1  0.7900  7.054713 13.775983 11.583335
231   1  0.7900  9.588518 14.666668 20.607352
232   1  0.7900 12.122324 15.557353 29.631369
233   1  0.7900 14.656129 16.448038 38.655386
234   1  0.7900 17.189934 17.338723 47.679403
235   1  0.7900  4.867892 18.767954  2.559318
236   1  0.7900  7.401697 19.658639 11.583335
237   1  0.7900  9.935502 20.549324 20.607352
238   1  0.7900 12.469308 21.440009 29.631369
239   1  0.7900 15.003113 22.330694 38.655386
240   1  0.7900 17.536919 23.221379 47.679403
241   1  0.7900  5.214876 24.650610  2.559318
242   1  0.7900  7.748681 25.541295 11.583335
243   1  0.7900 10.282487 26.431980 20.607352
244   1  0.7900 12.816292 27.322665 29.631369
245   1  0.7900 15.350098 28.213350 38.655386
246   1  0.7900 17.883903 29.104035 47.679403
247   1  0.7900  5.561860 30.533266  2.559318
248   1  0.7900  8.095666 31.423952 11.583335
249   1  0.7900 10.629471 32.314637 20.607352
250   1  0.7900 13.163277 33.205322 29.631369
251   1  0.7900 15.697082 34.096007 38.655386
252   1  0.7900 18.230887 34.986692 47.679403
253   1  0.7900  9.612374  1.119985  2.559318
254   1  0.7900 12.146180  2.010670 11.583335
255   1  0.7900 14.679985  2.901355 20.607352
256   1  0.7900 17.213791  3.792040 29.631369
257   1  0.7900 19.747596  4.682725 38.655386
258   1  0.7900 22.281401  5.573410 47.679403
259   1  0.7900  9.959359  7.002641  2.559318
260   1  0.7900 12.493164  7.893327 11.583335
261   1  0.7900 15.026970  8.784012 20.607352
262   1  0.7900 17.560775  9.674697 29.631369
263   1  0.7900 20.094580 10.565382 38.655386
264   1  0.7900 22.628386 11.456067 47.679403
265   1  0.7900 10.306343 12.885298  2.559318
266   1  0.7900 12.840148 13.775983 11.583335
267   1  0.7900 15.373954 14.666668 20.607352
268   1  0.7900 17.907759 15.557353 29.631369
269   1  0.7900 20.441565 16.448038 38.655386
270   1  0.7900 22.975370 17.338723 47.679403
271   1  0.7900 10.653327 18.767954  2.559318
272   1  0.7900 13.187133 19.658639 11.583335
273   1  0.7900 15.720938 20.549324 20.607352
274   1  0.7900 18.254744 21.440009 29.631369
275   1  0.7900 20.788549 22.330694 38.655386
276   1  0.7900 23.322354 23.221379 47.679403
277   1  0.7900 11.000312 24.650610  2.559318
278   1  0.7900 13.534117 25.541295 11.583335
279   1  0.7900 16.067923 26.431980 20.607352
280   1  0.7900 18.601728 27.322665 29.631369
281   1  0.7900 21.135533 28.213350 38.655386
282   1  0.7900 23.669339 29.104035 47.679403
283   1  0.7900 11.347296 30.533266  2.559318
284   1  0.7900 13.881102 31.423952 11.583335
285   1  0.7900 16.414907 32.314637 20.607352
286   1  0.7900 18.948712 33.205322 29.631369
287   1  0.7900 21.482518 34.096007 38.655386
288   1  0.7900 24.016323 34.986692 47.679403
289   1  0.7900 15.397810  1.119985  2.559318
290   1  0.7900 17.931615  2.010670 11.583335
291   1  0.7900 20.465421  2.901355 20.607352
292   1  0.7900 22.999226  3.792040 29.631369
293   1  0.7900 25.533032  4.682725 38.655386
294   1  0.7900 28.066837  5.573410 47.679403
295   1  0.7900 15.744794  7.002641  2.559318
296   1  0.7900 18.278600  7.893327 11.583335
297   1  0.7900 20.812405  8.784012 20.607352
298   1  0.7900 23.346211  9.674697 29.631369
299   1  0.7900 25.880016 10.565382 38.655386
300   1  0.7900 28.413821 11.456067 47.679403
301   1  0.7900 16.091779 12.885298  2.559318
302   1  0.7900 18.625584 13.775983 11.583335
303   1  0.7900 21.159390 14.666668 20.607352
304   1  0.7900 23.693195 15.557353 29.631369
305   1  0.7900 26.227000 16.448038 38.655386
306   1  0.7900 28.760806 17.338723 47.679403
307   1  0.7900 16.438763 18.767954  2.559318
308   1  0.7900 18.972569 19.658639 11.583335
309   1  0.7900 21.506374 20.549324 20.607352
310   1  0.7900 24.040179 21.440009 29.631369
311   1  0.7900 26.573985 22.330694 38.655386
312   1  0.7900 29.107790 23.221379 47.679403
313   1  0.7900 16.785748 24.650610  2.559318
314   1  0.7900 19.319553 25.541295 11.583335
315   1  0.7900 21.853358 26.431980 20.607352
316   1  0.7900 24.387164 27.322665 29.631369
317   1  0.7900 26.920969 28.213350 38.655386
318   1  0.7900 29.454775 29.104035 47.679403
319   1  0.7900 17.132732 30.533266  2.559318
320   1  0.7900 19.666537 31.423952 11.583335
321   1  0.7900 22.200343 32.314637 20.607352
322   1  0.7900 24.734148 33.205322 29.631369
323   1  0.7900 27.267954 34.096007 38.655386
324   1  0.7900 29.801759 34.986692 47.679403
325   1  0.7900 21.183246  1.119985  2.559318
326   1  0.7900 23.717051  2.010670 11.583335
327   1  0.7900 26.250857  2.901355 20.607352
328   1  0.7900 28.784662  3.792040 29.631369
329   1  0.7900 31.318467  4.682725 38.655386
330   1  0.7900 33.852273  5.573410 47.679403
331   1  0.7900 21.530230  7.002641  2.559318
332   1  0.7900 24.064036  7.893327 11.583335
333   1  0.7900 26.597841  8.784012 20.607352
334   1  0.7900 29.131646  9.674697 29.631369
335   1  0.7900 31.665452 10.565382 38.655386
336   1  0.7900 34.199257 11.456067 47.679403
337   1  0.7900 21.877215 12.885298  2.559318
338   1  0.7900 24.411020 13.775983 11.583335
339   1  0.7900 26.944825 14.666668 20.607352
340   1  0.7900 29.478631 15.557353 29.631369
341   1  0.7900 32.012436 16.448038 38.655386
342   1  0.7900 34.546242 17.338723 47.679403
343   1  0.7900 22.224199 18.767954  2.559318
344   1  0.7900 24.758004 19.658639 11.583335
345   1  0.7900 27.291810 20.549324 20.607352
346   1  0.7900 29.825615 21.440009 29.631369
347   1  0.7900 32.359421 22.330694 38.655386
348   1  0.7900 34.893226 23.221379 47.679403
349   1  0.7900 22.571183 24.650610  2.559318
350   1  0.7900 25.104989 25.541295 11.583335
351   1  0.7900 27.638794 26.431980 20.607352
352   1  0.7900 30.172600 27.322665 29.631369
353   1  0.7900 32.706405 28.213350 38.655386
354   1  0.7900 35.240210 29.104035 47.679403
355   1  0.7900 22.918168 30.533266  2.559318
356   1  0.7900 25.451973 31.423952 11.583335
357   1  0.7900 27.985778 32.314637 20.607352
358   1  0.7900 30.519584 33.205322 29.631369
359   1  0.7900 33.053389 34.096007 38.655386
360   1  0.7900 35.587195 34.986692 47.679403
361   1  0.7900 26.968682  1.119985  2.559318
362   1  0.7900 29.502487  2.010670 11.583335
363   1  0.7900 32.036292  2.901355 20.607352
364   1  0.7900 34.570098  3.792040 29.631369
365   1  0.7900 37.103903  4.682725 38.655386
366   1  0.7900 39.637709  5.573410 47.679403
367   1  0.7900 27.315666  7.002641  2.559318
368   1  0.7900 29.849471  7.893327 11.583335
369   1  0.7900 32.383277  8.784012 20.607352
370   1  0.7900 34.917082  9.674697 29.631369
371   1  0.7900 37.450888 10.565382 38.655386
372   1  0.7900 39.984693 11.456067 47.679403
373   1  0.7900 27.662650 12.885298  2.559318
374   1  0.7900 30.196456 13.775983 11.583335
375   1  0.7900 32.730261 14.666668 20.607352
376   1  0.7900 35.264067 15.557353 29.631369
377   1  0.7900 37.797872 16.448038 38.655386
378   1  0.7900 40.331677 17.338723 47.679403
379   1  0.7900 28.009635 18.767954  2.559318
380   1  0.7900 30.543440 19.658639 11.583335
381   1  0.7900 33.077245 20.549324 20.607352
382   1  0.7900 35.611051 21.440009 29.631369
383   1  0.7900 38.144856 22.330694 38.655386
384   1  0.7900 40.678662 23.221379 47.679403
385   1  0.7900 28.356619 24.650610  2.559318
386   1  0.7900 30.890424 25.541295 11.583335
387   1  0.7900 33.424230 26.431980 20.607352
388   1  0.7900 35.958035 27.322665 29.631369
389   1  0.7900 38.491841 28.213350 38.655386
390   1  0.7900 41.025646 29.104035 47.679403
391   1  0.7900 28.703603 30.533266  2.559318
392   1  0.7900 31.237409 31.423952 11.583335
393   1  0.7900 33.771214 32.314637 20.607352
394   1  0.7900 36.305020 33.205322 29.631369
395   1  0.7900 38.838825 34.096007 38.655386
396   1  0.7900 41.372630 34.986692 47.679403
397   1  0.7900 32.754117  1.119985  2.559318
398   1  0.7900 35.287923  2.010670 11.583335
399   1  0.7900 37.821728  2.901355 20.607352
400   1  0.7900 40.355534  3.792040 29.631369
401   1  0.7900 42.889339  4.682725 38.655386
402   1  0.7900 45.423144  5.573410 47.679403
403   1  0.7900 33.101102  7.002641  2.559318
404   1  0.7900 35.634907  7.893327 11.583335
405   1  0.7900 38.168713  8.784012 20.607352
406   1  0.7900 40.702518  9.674697 29.631369
407   1  0.7900 43.236323 10.565382 38.655386
408   1  0.7900 45.770129 11.456067 47.679403
409   1  0.7900 33.448086 12.885298  2.559318
410   1  0.7900 35.981891 13.775983 11.583335
411   1  0.7900 38.515697 14.666668 20.607352
412   1  0.7900 41.049502 15.557353 29.631369
413   1  0.7900 43.583308 16.448038 38.655386
414   1  0.7900 46.117113 17.338723 47.679403
415   1  0.7900 33.795070 18.767954  2.559318
416   1  0.7900 36.328876 19.658639 11.583335
417   1  0.7900 38.862681 20.549324 20.607352
418   1  0.7900 41.396487 21.440009 29.631369
419   1  0.7900 43.930292 22.330694 38.655386
420   1  0.7900 46.464097 23.221379 47.679403
421   1  0.7900 34.142055 24.650610  2.559318
422   1  0.7900 36.675860 25.541295 11.583335
423   1  0.7900 39.209666 26.431980 20.607352
424   1  0.7900 41.743471 27.322665 29.631369
425   1  0.7900 44.277276 28.213350 38.655386
426   1  0.7900 46.811082 29.104035 47.679403
427   1  0.7900 34.489039 30.533266  2.559318
428   1  0.7900 37.022845 31.423952 11.583335
429   1  0.7900 39.556650 32.314637 20.607352
430   1  0.7900 42.090455 33.205322 29.631369
431   1  0.7900 44.624261 34.096007 38.655386
432   1  0.7900 47.158066 34.986692 47.679403
433   1  0.7900  4.818487  4.285140  0.133144
434   1  0.7900  7.352293  5.175825  9.157161
435   1  0.7900  9.886098  6.066510 18.181178
436   1  0.7900 12.419904  6.957195 27.205194
437   1  0.7900 14.953709  7.847880 36.229211
438   1  0.7900 17.487514  8.738565 45.253228
439   1  0.7900  5.165472 10.167796  0.133144
440   1  0.7900  7.699277 11.058481  9.157161
441   1  0.7900 10.233083 11.949166 18.181178
442   1  0.7900 12.766888 12.839851 27.205194
443   1  0.7900 15.300693 13.730536 36.229211
444   1  0.7900 17.834499 14.621221 45.253228
445   1  0.7900  5.512456 16.050452  0.133144
446   1  0.7900  8.046262 16.941138  9.157161
447   1  0.7900 10.580067 17.831823 18.181178
448   1  0.7900 13.113872 18.722508 27.205194
449   1  0.7900 15.647678 19.613193 36.229211
450   1  0.7900 18.181483 20.503878 45.253228
451   1  0.7900  5.859440 21.933109  0.133144
452   1  0.7900  8.393246 22.823794  9.157161
453   1  0.7900 10.927051 23.714479 18.181178
454   1  0.7900 13.460857 24.605164 27.205194
455   1  0.7900 15.994662 25.495849 36.229211
456   1  0.7900 18.528467 26.386534 45.253228
457   1  0.7900  6.206425 27.815765  0.133144
458   1  0.7900  8.740230 28.706450  9.157161
459   1  0.7900 11.274036 29.597135 18.181178
460   1  0.7900 13.807841 30.487820 27.205194
461   1  0.7900 16.341646 31.378505 36.229211
462   1  0.7900 18.875452 32.269190 45.253228
463   1  0.7900  6.553409 33.698421  0.133144
464   1  0.7900  9.087215 34.589106  9.157161
465   1  0.7900 11.621020 35.479791 18.181178
466   1  0.7900 14.154825 36.370476 27.205194
467   1  0.7900 16.688631 37.261161 36.229211
468   1  0.7900 19.222436 38.151846 45.253228
469   1  0.7900 10.603923  4.285140  0.133144
470   1  0.7900 13.137729  5.175825  9.157161
471   1  0.7900 15.671534  6.066510 18.181178
472   1  0.7900 18.205339  6.957195 27.205194
473   1  0.7900 20.739145  7.847880 36.229211
474   1  0.7900 23.272950  8.738565 45.253228
475   1  0.7900 10.950907 10.167796  0.133144
476   1  0.7900 13.484713 11.058481  9.157161
477   1  0.7900 16.018518 11.949166 18.181178
478   1  0.7900 18.552324 12.839851 27.205194
479   1  0.7900 21.086129 13.730536 36.229211
480   1  0.7900 23.619934 14.621221 45.253228
481   1  0.7900 11.297892 16.050452  0.133144
482   1  0.7900 13.831697 16.941138  9.157161
483   1  0.7900 16.365503 17.831823 18.181178
484   1  0.7900 18.899308 18.722508 27.205194
485   1  0.7900 21.433113 19.613193 36.229211
486   1  0.7900 23.966919 20.503878 45.253228
487   1  0.7900 11.644876 21.933109  0.133144
488   1  0.7900 14.178682 22.823794  9.157161
489   1  0.7900 16.712487 23.714479 18.181178
490   1  0.7900 19.246292 24.605164 27.205194
491   1  0.7900 21.780098 25.495849 36.229211
492   1  0.7900 24.313903 26.386534 45.253228
493   1  0.7900 11.991861 27.815765  0.133144
494   1  0.7900 14.525666 28.706450  9.157161
495   1  0.7900 17.059471 29.597135 18.181178
496   1  0.7900 19.593277 30.487820 27.205194
497   1  0.7900 22.127082 31.378505 36.229211
498   1  0.7900 24.660888 32.269190 45.253228
499   1  0.7900 12.338845 33.698421  0.133144
500   1  0.7900 14.872650 34.589106  9.157161
501   1  0.7900 17.406456 35.479791 18.181178
502   1  0.7900 19.940261 36.370476 27.205194
503   1  0.7900 22.474067 37.261161 36.229211
504   1  0.7900 25.007872 38.151846 45.253228
505   1  0.7900 16.389359  4.285140  0.133144
506   1  0.7900 18.923164  5.175825  9.157161
507   1  0.7900 21.456970  6.066510 18.181178
508   1  0.7900 23.990775  6.957195 27.205194
509   1  0.7900 26.524580  7.847880 36.229211
510   1  0.7900 29.058386  8.738565 45.253228
511   1  0.7900 16.736343 10.167796  0.133144
512   1  0.7900 19.270149 11.058481  9.157161
513   1  0.7900 21.803954 11.949166 18.181178
514   1  0.7900 24.337759 12.839851 27.205194
515   1  0.7900 26.871565 13.730536 36.229211
516   1  0.7900 29.405370 14.621221 45.253228
517   1  0.7900 17.083328 16.050452  0.133144
518   1  0.7900 19.617133 16.941138  9.157161
519   1  0.7900 22.150938 17.831823 18.181178
520   1  0.7900 24.684744 18.722508 27.205194
521   1  0.7900 27.218549 19.613193 36.229211
522   1  0.7900 29.752355 20.503878 45.253228
523   1  0.7900 17.430312 21.933109  0.133144
524   1  0.7900 19.964117 22.823794  9.157161
525   1  0.7900 22.497923 23.714479 18.181178
526   1  0.7900 25.031728 24.605164 27.205194
527   1  0.7900 27.565534 25.495849 36.229211
528   1  0.7900 30.099339 26.386534 45.253228
529   1  0.7900 17.777296 27.815765  0.133144
530   1  0.7900 20.311102 28.706450  9.157161
531   1  0.7900 22.844907 29.597135 18.181178
532   1  0.7900 25.378713 30.487820 27.205194
533   1  0.7900 27.912518 31.378505 36.229211
534   1  0.7900 30.446323 32.269190 45.253228
535   1  0.7900 18.124281 33.698421  0.133144
536   1  0.7900 20.658086 34.589106  9.157161
537   1  0.7900 23.191892 35.479791 18.181178
538   1  0.7900 25.725697 36.370476 27.205194
539   1  0.7900 28.259502 37.261161 36.229211
540   1  0.7900 30.793308 38.151846 45.253228
541   1  0.7900 22.174795  4.285140  0.133144
542   1  0.7900 24.708600  5.175825  9.157161
543   1  0.7900 27.242405  6.066510 18.181178
544   1  0.7900 29.776211  6.957195 27.205194
545   1  0.7900 32.310016  7.847880 36.229211
546   1  0.7900 34.843822  8.738565 45.253228
547   1  0.7900 22.521779 10.167796  0.133144
548   1  0.7900 25.055584 11.058481  9.157161
549   1  0.7900 27.589390 11.949166 18.181178
550   1  0.7900 30.123195 12.839851 27.205194
551   1  0.7900 32.657001 13.730536 36.229211
552   1  0.7900 35.190806 14.621221 45.253228
553   1  0.7900 22.868763 16.050452  0.133144
554   1  0.7900 25.402569 16.941138  9.157161
555   1  0.7900 27.936374 17.831823 18.181178
556   1  0.7900 30.470180 18.722508 27.205194
557   1  0.7900 33.003985 19.613193 36.229211
558   1  0.7900 35.537790 20.503878 45.253228
559   1  0.7900 23.215748 21.933109  0.133144
560   1  0.7900 25.749553 22.823794  9.157161
561   1  0.7900 28.283359 23.714479 18.181178
562   1  0.7900 30.817164 24.605164 27.205194
563   1  0.7900 33.350969 25.495849 36.229211
564   1  0.7900 35.884775 26.386534 45.253228
565   1  0.7900 23.562732 27.815765  0.133144
566   1  0.7900 26.096537 28.706450  9.157161
567   1  0.7900 28.630343 29.597135 18.181178
568   1  0.7900 31.164148 30.487820 27.205194
569   1  0.7900 33.697954 31.378505 36.229211
570   1  0.7900 36.231759 32.269190 45.253228
571   1  0.7900 23.909716 33.698421  0.133144
572   1  0.7900 26.443522 34.589106  9.157161
573   1  0.7900 28.977327 35.479791 18.181178
574   1  0.7900 31.511133 36.370476 27.205194
575   1  0.7900 34.044938 37.261161 36.229211
576   1  0.7900 36.578743 38.151846 45.253228
577   1  0.7900 27.960230  4.285140  0.133144
578   1  0.7900 30.494036  5.175825  9.157161
579   1  0.7900 33.027841  6.066510 18.181178
580   1  0.7900 35.561647  6.957195 27.205194
581   1  0.7900 38.095452  7.847880 36.229211
582   1  0.7900 40.629257  8.738565 45.253228
583   1  0.7900 28.307215 10.167796  0.133144
584   1  0.7900 30.841020 11.058481  9.157161
585   1  0.7900 33.374826 11.949166 18.181178
586   1  0.7900 35.908631 12.839851 27.205194
587   1  0.7900 38.442436 13.730536 36.229211
588   1  0.7900 40.976242 14.621221 45.253228
589   1  0.7900 28.654199 16.050452  0.133144
590   1  0.7900 31.188005 16.941138  9.157161
591   1  0.7900 33.721810 17.831823 18.181178
592   1  0.7900 36.255615 18.722508 27.205194
593   1  0.7900 38.789421 19.613193 36.229211
594   1  0.7900 41.323226 20.503878 45.253228
595   1  0.7900 29.001183 21.933109  0.133144
596   1  0.7900 31.534989 22.823794  9.157161
597   1  0.7900 34.068794 23.714479 18.181178
598   1  0.7900 36.602600 24.605164 27.205194
599   1  0.7900 39.136405 25.495849 36.229211
600   1  0.7900 41.670210 26.386534 45.253228
601   1  0.7900 29.348168 27.815765  0.133144
602   1  0.7900 31.881973 28.706450  9.157161
603   1  0.7900 34.415779 29.597135 18.181178
604   1  0.7900 36.949584 30.487820 27.205194
605   1  0.7900 39.483389 31.378505 36.229211
606   1  0.7900 42.017195 32.269190 45.253228
607   1  0.7900 29.695152 33.698421  0.133144
608   1  0.7900 32.228958 34.589106  9.157161
609   1  0.7900 34.762763 35.479791 18.181178
610   1  0.7900 37.296568 36.370476 27.205194
611   1  0.7900 39.830374 37.261161 36.229211
612   1  0.7900 42.364179 38.151846 45.253228
613   1  0.7900 33.745666  4.285140  0.133144
614   1  0.7900 36.279472  5.175825  9.157161
615   1  0.7900 38.813277  6.066510 18.181178
616   1  0.7900 41.347082  6.957195 27.205194
617   1  0.7900 43.880888  7.847880 36.229211
618   1  0.7900 46.414693  8.738565 45.253228
619   1  0.7900 34.092650 10.167796  0.133144
620   1  0.7900 36.626456 11.058481  9.157161
621   1  0.7900 39.160261 11.949166 18.181178
622   1  0.7900 41.694067 12.839851 27.205194
623   1  0.7900 44.227872 13.730536 36.229211
624   1  0.7900 46.761677 14.621221 45.253228
625   1  0.7900 34.439635 16.050452  0.133144
626   1  0.7900 36.973440 16.941138  9.157161
627   1  0.7900 39.507246 17.831823 18.181178
628   1  0.7900 42.041051 18.722508 27.205194
629   1  0.7900 44.574856 19.613193 36.229211
630   1  0.7900 47.108662 20.503878 45.253228
631   1  0.7900 34.786619 21.933109  0.133144
632   1  0.7900 37.320425 22.823794  9.157161
633   1  0.7900 39.854230 23.714479 18.181178
634   1  0.7900 42.388035 24.605164 27.205194
635   1  0.7900 44.921841 25.495849 36.229211
636   1  0.7900 47.455646 26.386534 45.253228
637   1  0.7900 35.133604 27.815765  0.133144
638   1  0.7900 37.667409 28.706450  9.157161
639   1  0.7900 40.201214 29.597135 18.181178
640   1  0.7900 42.735020 30.487820 27.205194
641   1  0.7900 45.268825 31.378505 36.229211
642   1  0.7900 47.802631 32.269190 45.253228
643   1  0.7900 35.480588 33.698421  0.133144
644   1  0.7900 38.014393 34.589106  9.157161
645   1  0.7900 40.548199 35.479791 18.181178
646   1  0.7900 43.082004 36.370476 27.205194