Generated by pymatgen.io.lammps.data.LammpsData

3200  atoms

   4  atom types

0.000000 23.385772  xlo xhi
0.000000 20.252675  ylo yhi
0.000000 97.359952  zlo zhi
-11.692883 0.000000 0.000000  xy xz yz

Masses

1  137.3270
2    6.9410
3  183.8400
4   15.9994

Atoms

1     1 0.0000   0.000000  0.000000  3.644524
2     1 0.0000   0.000000  0.000000 27.984512
3     1 0.0000   0.000000  0.000000 52.324500
4     1 0.0000   0.000000  0.000000 76.664488
5     1 0.0000  20.462552  5.063169  3.644524
6     1 0.0000  20.462552  5.063169 27.984512
7     1 0.0000  20.462552  5.063169 52.324500
8     1 0.0000  20.462552  5.063169 76.664488
9     1 0.0000  17.539331 10.126338  3.644524
10    1 0.0000  17.539331 10.126338 27.984512
11    1 0.0000  17.539331 10.126338 52.324500
12    1 0.0000  17.539331 10.126338 76.664488
13    1 0.0000  -8.769662 15.189506  3.644524
14    1 0.0000  -8.769662 15.189506 27.984512
15    1 0.0000  -8.769662 15.189506 52.324500
16    1 0.0000  -8.769662 15.189506 76.664488
17    1 0.0000  -5.846440 20.252675  3.644524
18    1 0.0000  -5.846440 20.252675 27.984512
19    1 0.0000  -5.846440 20.252675 52.324500
20    1 0.0000  -5.846440 20.252675 76.664488
21    1 0.0000   2.923222  5.063169  3.644524
22    1 0.0000   2.923222  5.063169 27.984512
23    1 0.0000   2.923222  5.063169 52.324500
24    1 0.0000   2.923222  5.063169 76.664488
25    1 0.0000   0.000002 10.126338  3.644524
26    1 0.0000   0.000002 10.126338 27.984512
27    1 0.0000   0.000002 10.126338 52.324500
28    1 0.0000   0.000002 10.126338 76.664488
29    1 0.0000  -2.923219 15.189506  3.644524
30    1 0.0000  -2.923219 15.189506 27.984512
31    1 0.0000  -2.923219 15.189506 52.324500
32    1 0.0000  -2.923219 15.189506 76.664488
33    1 0.0000   0.000004 20.252675  3.644524
34    1 0.0000   0.000004 20.252675 27.984512
35    1 0.0000   0.000004 20.252675 52.324500
36    1 0.0000   0.000004 20.252675 76.664488
37    1 0.0000   8.769666  5.063169  3.644524
38    1 0.0000   8.769666  5.063169 27.984512
39    1 0.0000   8.769666  5.063169 52.324500
40    1 0.0000   8.769666  5.063169 76.664488
41    1 0.0000   5.846445 10.126338  3.644524
42    1 0.0000   5.846445 10.126338 27.984512
43    1 0.0000   5.846445 10.126338 52.324500
44    1 0.0000   5.846445 10.126338 76.664488
45    1 0.0000   2.923224 15.189506  3.644524
46    1 0.0000   2.923224 15.189506 27.984512
47    1 0.0000   2.923224 15.189506 52.324500
48    1 0.0000   2.923224 15.189506 76.664488
49    1 0.0000  17.539329  0.000000  3.644524
50    1 0.0000  17.539329  0.000000 27.984512
51    1 0.0000  17.539329  0.000000 52.324500
52    1 0.0000  17.539329  0.000000 76.664488
53    1 0.0000  14.616109  5.063169  3.644524
54    1 0.0000  14.616109  5.063169 27.984512
55    1 0.0000  14.616109  5.063169 52.324500
56    1 0.0000  14.616109  5.063169 76.664488
57    1 0.0000  11.692888 10.126338  3.644524
58    1 0.0000  11.692888 10.126338 27.984512
59    1 0.0000  11.692888 10.126338 52.324500
60    1 0.0000  11.692888 10.126338 76.664488
61    1 0.0000   8.769667 15.189506  3.644524
62    1 0.0000   8.769667 15.189506 27.984512
63    1 0.0000   8.769667 15.189506 52.324500
64    1 0.0000   8.769667 15.189506 76.664488
65    1 0.0000   0.000000  0.000000 20.685996
66    1 0.0000   0.000000  0.000000 45.025984
67    1 0.0000   0.000000  0.000000 69.365972
68    1 0.0000   0.000000  0.000000 93.705960
69    1 0.0000  20.462552  5.063169 20.685996
70    1 0.0000  20.462552  5.063169 45.025984
71    1 0.0000  20.462552  5.063169 69.365972
72    1 0.0000  20.462552  5.063169 93.705960
73    1 0.0000  17.539331 10.126338 20.685996
74    1 0.0000  17.539331 10.126338 45.025984
75    1 0.0000  17.539331 10.126338 69.365972
76    1 0.0000  17.539331 10.126338 93.705960
77    1 0.0000  -8.769662 15.189506 20.685996
78    1 0.0000  -8.769662 15.189506 45.025984
79    1 0.0000  -8.769662 15.189506 69.365972
80    1 0.0000  -8.769662 15.189506 93.705960
81    1 0.0000  -5.846440 20.252675 20.685996
82    1 0.0000  -5.846440 20.252675 45.025984
83    1 0.0000  -5.846440 20.252675 69.365972
84    1 0.0000  -5.846440 20.252675 93.705960
85    1 0.0000   2.923222  5.063169 20.685996
86    1 0.0000   2.923222  5.063169 45.025984
87    1 0.0000   2.923222  5.063169 69.365972
88    1 0.0000   2.923222  5.063169 93.705960
89    1 0.0000   0.000002 10.126338 20.685996
90    1 0.0000   0.000002 10.126338 45.025984
91    1 0.0000   0.000002 10.126338 69.365972
92    1 0.0000   0.000002 10.126338 93.705960
93    1 0.0000  -2.923219 15.189506 20.685996
94    1 0.0000  -2.923219 15.189506 45.025984
95    1 0.0000  -2.923219 15.189506 69.365972
96    1 0.0000  -2.923219 15.189506 93.705960
97    1 0.0000   0.000004 20.252675 20.685996
98    1 0.0000   0.000004 20.252675 45.025984
99    1 0.0000   0.000004 20.252675 69.365972
100   1 0.0000   0.000004 20.252675 93.705960
101   1 0.0000   8.769666  5.063169 20.685996
102   1 0.0000   8.769666  5.063169 45.025984
103   1 0.0000   8.769666  5.063169 69.365972
104   1 0.0000   8.769666  5.063169 93.705960
105   1 0.0000   5.846445 10.126338 20.685996
106   1 0.0000   5.846445 10.126338 45.025984
107   1 0.0000   5.846445 10.126338 69.365972
108   1 0.0000   5.846445 10.126338 93.705960
109   1 0.0000   2.923224 15.189506 20.685996
110   1 0.0000   2.923224 15.189506 45.025984
111   1 0.0000   2.923224 15.189506 69.365972
112   1 0.0000   2.923224 15.189506 93.705960
113   1 0.0000  17.539329  0.000000 20.685996
114   1 0.0000  17.539329  0.000000 45.025984
115   1 0.0000  17.539329  0.000000 69.365972
116   1 0.0000  17.539329  0.000000 93.705960
117   1 0.0000  14.616109  5.063169 20.685996
118   1 0.0000  14.616109  5.063169 45.025984
119   1 0.0000  14.616109  5.063169 69.365972
120   1 0.0000  14.616109  5.063169 93.705960
121   1 0.0000  11.692888 10.126338 20.685996
122   1 0.0000  11.692888 10.126338 45.025984
123   1 0.0000  11.692888 10.126338 69.365972
124   1 0.0000  11.692888 10.126338 93.705960
125   1 0.0000   8.769667 15.189506 20.685996
126   1 0.0000   8.769667 15.189506 45.025984
127   1 0.0000   8.769667 15.189506 69.365972
128   1 0.0000   8.769667 15.189506 93.705960
129   1 0.0000   2.923225  1.687721 23.310674
130   1 0.0000   2.923225  1.687721 47.650662
131   1 0.0000   2.923225  1.687721 71.990650
132   1 0.0000   2.923225  1.687721 96.330638
133   1 0.0000   0.000004  6.750890 23.310674
134   1 0.0000   0.000004  6.750890 47.650662
135   1 0.0000   0.000004  6.750890 71.990650
136   1 0.0000   0.000004  6.750890 96.330638
137   1 0.0000  -2.923217 11.814059 23.310674
138   1 0.0000  -2.923217 11.814059 47.650662
139   1 0.0000  -2.923217 11.814059 71.990650
140   1 0.0000  -2.923217 11.814059 96.330638
141   1 0.0000  -5.846437 16.877228 23.310674
142   1 0.0000  -5.846437 16.877228 47.650662
143   1 0.0000  -5.846437 16.877228 71.990650
144   1 0.0000  -5.846437 16.877228 96.330638
145   1 0.0000   8.769668  1.687721 23.310674
146   1 0.0000   8.769668  1.687721 47.650662
147   1 0.0000   8.769668  1.687721 71.990650
148   1 0.0000   8.769668  1.687721 96.330638
149   1 0.0000   5.846447  6.750890 23.310674
150   1 0.0000   5.846447  6.750890 47.650662
151   1 0.0000   5.846447  6.750890 71.990650
152   1 0.0000   5.846447  6.750890 96.330638
153   1 0.0000   2.923227 11.814059 23.310674
154   1 0.0000   2.923227 11.814059 47.650662
155   1 0.0000   2.923227 11.814059 71.990650
156   1 0.0000   2.923227 11.814059 96.330638
157   1 0.0000   0.000006 16.877228 23.310674
158   1 0.0000   0.000006 16.877228 47.650662
159   1 0.0000   0.000006 16.877228 71.990650
160   1 0.0000   0.000006 16.877228 96.330638
161   1 0.0000  14.616111  1.687721 23.310674
162   1 0.0000  14.616111  1.687721 47.650662
163   1 0.0000  14.616111  1.687721 71.990650
164   1 0.0000  14.616111  1.687721 96.330638
165   1 0.0000  11.692890  6.750890 23.310674
166   1 0.0000  11.692890  6.750890 47.650662
167   1 0.0000  11.692890  6.750890 71.990650
168   1 0.0000  11.692890  6.750890 96.330638
169   1 0.0000   8.769670 11.814059 23.310674
170   1 0.0000   8.769670 11.814059 47.650662
171   1 0.0000   8.769670 11.814059 71.990650
172   1 0.0000   8.769670 11.814059 96.330638
173   1 0.0000   5.846449 16.877228 23.310674
174   1 0.0000   5.846449 16.877228 47.650662
175   1 0.0000   5.846449 16.877228 71.990650
176   1 0.0000   5.846449 16.877228 96.330638
177   1 0.0000  20.462554  1.687721 23.310674
178   1 0.0000  20.462554  1.687721 47.650662
179   1 0.0000  20.462554  1.687721 71.990650
180   1 0.0000  20.462554  1.687721 96.330638
181   1 0.0000  17.539333  6.750890 23.310674
182   1 0.0000  17.539333  6.750890 47.650662
183   1 0.0000  17.539333  6.750890 71.990650
184   1 0.0000  17.539333  6.750890 96.330638
185   1 0.0000  14.616113 11.814059 23.310674
186   1 0.0000  14.616113 11.814059 47.650662
187   1 0.0000  14.616113 11.814059 71.990650
188   1 0.0000  14.616113 11.814059 96.330638
189   1 0.0000  11.692892 16.877228 23.310674
190   1 0.0000  11.692892 16.877228 47.650662
191   1 0.0000  11.692892 16.877228 71.990650
192   1 0.0000  11.692892 16.877228 96.330638
193   1 0.0000   2.923225  1.687721 13.460646
194   1 0.0000   2.923225  1.687721 37.800634
195   1 0.0000   2.923225  1.687721 62.140622
196   1 0.0000   2.923225  1.687721 86.480610
197   1 0.0000   0.000004  6.750890 13.460646
198   1 0.0000   0.000004  6.750890 37.800634
199   1 0.0000   0.000004  6.750890 62.140622
200   1 0.0000   0.000004  6.750890 86.480610
201   1 0.0000  -2.923217 11.814059 13.460646
202   1 0.0000  -2.923217 11.814059 37.800634
203   1 0.0000  -2.923217 11.814059 62.140622
204   1 0.0000  -2.923217 11.814059 86.480610
205   1 0.0000  -5.846437 16.877228 13.460646
206   1 0.0000  -5.846437 16.877228 37.800634
207   1 0.0000  -5.846437 16.877228 62.140622
208   1 0.0000  -5.846437 16.877228 86.480610
209   1 0.0000   8.769668  1.687721 13.460646
210   1 0.0000   8.769668  1.687721 37.800634
211   1 0.0000   8.769668  1.687721 62.140622
212   1 0.0000   8.769668  1.687721 86.480610
213   1 0.0000   5.846447  6.750890 13.460646
214   1 0.0000   5.846447  6.750890 37.800634
215   1 0.0000   5.846447  6.750890 62.140622
216   1 0.0000   5.846447  6.750890 86.480610
217   1 0.0000   2.923227 11.814059 13.460646
218   1 0.0000   2.923227 11.814059 37.800634
219   1 0.0000   2.923227 11.814059 62.140622
220   1 0.0000   2.923227 11.814059 86.480610
221   1 0.0000   0.000006 16.877228 13.460646
222   1 0.0000   0.000006 16.877228 37.800634
223   1 0.0000   0.000006 16.877228 62.140622
224   1 0.0000   0.000006 16.877228 86.480610
225   1 0.0000  14.616111  1.687721 13.460646
226   1 0.0000  14.616111  1.687721 37.800634
227   1 0.0000  14.616111  1.687721 62.140622
228   1 0.0000  14.616111  1.687721 86.480610
229   1 0.0000  11.692890  6.750890 13.460646
230   1 0.0000  11.692890  6.750890 37.800634
231   1 0.0000  11.692890  6.750890 62.140622
232   1 0.0000  11.692890  6.750890 86.480610
233   1 0.0000   8.769670 11.814059 13.460646
234   1 0.0000   8.769670 11.814059 37.800634
235   1 0.0000   8.769670 11.814059 62.140622
236   1 0.0000   8.769670 11.814059 86.480610
237   1 0.0000   5.846449 16.877228 13.460646
238   1 0.0000   5.846449 16.877228 37.800634
239   1 0.0000   5.846449 16.877228 62.140622
240   1 0.0000   5.846449 16.877228 86.480610
241   1 0.0000  20.462554  1.687721 13.460646
242   1 0.0000  20.462554  1.687721 37.800634
243   1 0.0000  20.462554  1.687721 62.140622
244   1 0.0000  20.462554  1.687721 86.480610
245   1 0.0000  17.539333  6.750890 13.460646
246   1 0.0000  17.539333  6.750890 37.800634
247   1 0.0000  17.539333  6.750890 62.140622
248   1 0.0000  17.539333  6.750890 86.480610
249   1 0.0000  14.616113 11.814059 13.460646
250   1 0.0000  14.616113 11.814059 37.800634
251   1 0.0000  14.616113 11.814059 62.140622
252   1 0.0000  14.616113 11.814059 86.480610
253   1 0.0000  11.692892 16.877228 13.460646
254   1 0.0000  11.692892 16.877228 37.800634
255   1 0.0000  11.692892 16.877228 62.140622
256   1 0.0000  11.692892 16.877228 86.480610
257   1 0.0000   0.000000  0.000000 15.814518
258   1 0.0000   0.000000  0.000000 40.154506
259   1 0.0000   0.000000  0.000000 64.494494
260   1 0.0000   0.000000  0.000000 88.834482
261   1 0.0000  20.462552  5.063169 15.814518
262   1 0.0000  20.462552  5.063169 40.154506
263   1 0.0000  20.462552  5.063169 64.494494
264   1 0.0000  20.462552  5.063169 88.834482
265   1 0.0000  17.539331 10.126338 15.814518
266   1 0.0000  17.539331 10.126338 40.154506
267   1 0.0000  17.539331 10.126338 64.494494
268   1 0.0000  17.539331 10.126338 88.834482
269   1 0.0000  -8.769662 15.189506 15.814518
270   1 0.0000  -8.769662 15.189506 40.154506
271   1 0.0000  -8.769662 15.189506 64.494494
272   1 0.0000  -8.769662 15.189506 88.834482
273   1 0.0000  -5.846440 20.252675 15.814518
274   1 0.0000  -5.846440 20.252675 40.154506
275   1 0.0000  -5.846440 20.252675 64.494494
276   1 0.0000  -5.846440 20.252675 88.834482
277   1 0.0000   2.923222  5.063169 15.814518
278   1 0.0000   2.923222  5.063169 40.154506
279   1 0.0000   2.923222  5.063169 64.494494
280   1 0.0000   2.923222  5.063169 88.834482
281   1 0.0000   0.000002 10.126338 15.814518
282   1 0.0000   0.000002 10.126338 40.154506
283   1 0.0000   0.000002 10.126338 64.494494
284   1 0.0000   0.000002 10.126338 88.834482
285   1 0.0000  -2.923219 15.189506 15.814518
286   1 0.0000  -2.923219 15.189506 40.154506
287   1 0.0000  -2.923219 15.189506 64.494494
288   1 0.0000  -2.923219 15.189506 88.834482
289   1 0.0000   0.000004 20.252675 15.814518
290   1 0.0000   0.000004 20.252675 40.154506
291   1 0.0000   0.000004 20.252675 64.494494
292   1 0.0000   0.000004 20.252675 88.834482
293   1 0.0000   8.769666  5.063169 15.814518
294   1 0.0000   8.769666  5.063169 40.154506
295   1 0.0000   8.769666  5.063169 64.494494
296   1 0.0000   8.769666  5.063169 88.834482
297   1 0.0000   5.846445 10.126338 15.814518
298   1 0.0000   5.846445 10.126338 40.154506
299   1 0.0000   5.846445 10.126338 64.494494
300   1 0.0000   5.846445 10.126338 88.834482
301   1 0.0000   2.923224 15.189506 15.814518
302   1 0.0000   2.923224 15.189506 40.154506
303   1 0.0000   2.923224 15.189506 64.494494
304   1 0.0000   2.923224 15.189506 88.834482
305   1 0.0000  17.539329  0.000000 15.814518
306   1 0.0000  17.539329  0.000000 40.154506
307   1 0.0000  17.539329  0.000000 64.494494
308   1 0.0000  17.539329  0.000000 88.834482
309   1 0.0000  14.616109  5.063169 15.814518
310   1 0.0000  14.616109  5.063169 40.154506
311   1 0.0000  14.616109  5.063169 64.494494
312   1 0.0000  14.616109  5.063169 88.834482
313   1 0.0000  11.692888 10.126338 15.814518
314   1 0.0000  11.692888 10.126338 40.154506
315   1 0.0000  11.692888 10.126338 64.494494
316   1 0.0000  11.692888 10.126338 88.834482
317   1 0.0000   8.769667 15.189506 15.814518
318   1 0.0000   8.769667 15.189506 40.154506
319   1 0.0000   8.769667 15.189506 64.494494
320   1 0.0000   8.769667 15.189506 88.834482
321   1 0.0000  -0.000002  3.375448  1.290652
322   1 0.0000  -0.000002  3.375448 25.630640
323   1 0.0000  -0.000002  3.375448 49.970628
324   1 0.0000  -0.000002  3.375448 74.310616
325   1 0.0000  -2.923223  8.438616  1.290652
326   1 0.0000  -2.923223  8.438616 25.630640
327   1 0.0000  -2.923223  8.438616 49.970628
328   1 0.0000  -2.923223  8.438616 74.310616
329   1 0.0000  -5.846444 13.501785  1.290652
330   1 0.0000  -5.846444 13.501785 25.630640
331   1 0.0000  -5.846444 13.501785 49.970628
332   1 0.0000  -5.846444 13.501785 74.310616
333   1 0.0000  -8.769664 18.564954  1.290652
334   1 0.0000  -8.769664 18.564954 25.630640
335   1 0.0000  -8.769664 18.564954 49.970628
336   1 0.0000  -8.769664 18.564954 74.310616
337   1 0.0000   5.846441  3.375448  1.290652
338   1 0.0000   5.846441  3.375448 25.630640
339   1 0.0000   5.846441  3.375448 49.970628
340   1 0.0000   5.846441  3.375448 74.310616
341   1 0.0000   2.923220  8.438616  1.290652
342   1 0.0000   2.923220  8.438616 25.630640
343   1 0.0000   2.923220  8.438616 49.970628
344   1 0.0000   2.923220  8.438616 74.310616
345   1 0.0000  -0.000001 13.501785  1.290652
346   1 0.0000  -0.000001 13.501785 25.630640
347   1 0.0000  -0.000001 13.501785 49.970628
348   1 0.0000  -0.000001 13.501785 74.310616
349   1 0.0000  -2.923221 18.564954  1.290652
350   1 0.0000  -2.923221 18.564954 25.630640
351   1 0.0000  -2.923221 18.564954 49.970628
352   1 0.0000  -2.923221 18.564954 74.310616
353   1 0.0000  11.692884  3.375448  1.290652
354   1 0.0000  11.692884  3.375448 25.630640
355   1 0.0000  11.692884  3.375448 49.970628
356   1 0.0000  11.692884  3.375448 74.310616
357   1 0.0000   8.769663  8.438616  1.290652
358   1 0.0000   8.769663  8.438616 25.630640
359   1 0.0000   8.769663  8.438616 49.970628
360   1 0.0000   8.769663  8.438616 74.310616
361   1 0.0000   5.846443 13.501785  1.290652
362   1 0.0000   5.846443 13.501785 25.630640
363   1 0.0000   5.846443 13.501785 49.970628
364   1 0.0000   5.846443 13.501785 74.310616
365   1 0.0000   2.923222 18.564954  1.290652
366   1 0.0000   2.923222 18.564954 25.630640
367   1 0.0000   2.923222 18.564954 49.970628
368   1 0.0000   2.923222 18.564954 74.310616
369   1 0.0000  17.539327  3.375448  1.290652
370   1 0.0000  17.539327  3.375448 25.630640
371   1 0.0000  17.539327  3.375448 49.970628
372   1 0.0000  17.539327  3.375448 74.310616
373   1 0.0000  14.616106  8.438616  1.290652
374   1 0.0000  14.616106  8.438616 25.630640
375   1 0.0000  14.616106  8.438616 49.970628
376   1 0.0000  14.616106  8.438616 74.310616
377   1 0.0000  11.692886 13.501785  1.290652
378   1 0.0000  11.692886 13.501785 25.630640
379   1 0.0000  11.692886 13.501785 49.970628
380   1 0.0000  11.692886 13.501785 74.310616
381   1 0.0000   8.769665 18.564954  1.290652
382   1 0.0000   8.769665 18.564954 25.630640
383   1 0.0000   8.769665 18.564954 49.970628
384   1 0.0000   8.769665 18.564954 74.310616
385   1 0.0000   0.000000  0.000000  8.516002
386   1 0.0000   0.000000  0.000000 32.855990
387   1 0.0000   0.000000  0.000000 57.195978
388   1 0.0000   0.000000  0.000000 81.535966
389   1 0.0000  20.462552  5.063169  8.516002
390   1 0.0000  20.462552  5.063169 32.855990
391   1 0.0000  20.462552  5.063169 57.195978
392   1 0.0000  20.462552  5.063169 81.535966
393   1 0.0000  17.539331 10.126338  8.516002
394   1 0.0000  17.539331 10.126338 32.855990
395   1 0.0000  17.539331 10.126338 57.195978
396   1 0.0000  17.539331 10.126338 81.535966
397   1 0.0000  -8.769662 15.189506  8.516002
398   1 0.0000  -8.769662 15.189506 32.855990
399   1 0.0000  -8.769662 15.189506 57.195978
400   1 0.0000  -8.769662 15.189506 81.535966
401   1 0.0000  -5.846440 20.252675  8.516002
402   1 0.0000  -5.846440 20.252675 32.855990
403   1 0.0000  -5.846440 20.252675 57.195978
404   1 0.0000  -5.846440 20.252675 81.535966
405   1 0.0000   2.923222  5.063169  8.516002
406   1 0.0000   2.923222  5.063169 32.855990
407   1 0.0000   2.923222  5.063169 57.195978
408   1 0.0000   2.923222  5.063169 81.535966
409   1 0.0000   0.000002 10.126338  8.516002
410   1 0.0000   0.000002 10.126338 32.855990
411   1 0.0000   0.000002 10.126338 57.195978
412   1 0.0000   0.000002 10.126338 81.535966
413   1 0.0000  -2.923219 15.189506  8.516002
414   1 0.0000  -2.923219 15.189506 32.855990
415   1 0.0000  -2.923219 15.189506 57.195978
416   1 0.0000  -2.923219 15.189506 81.535966
417   1 0.0000   0.000004 20.252675  8.516002
418   1 0.0000   0.000004 20.252675 32.855990
419   1 0.0000   0.000004 20.252675 57.195978
420   1 0.0000   0.000004 20.252675 81.535966
421   1 0.0000   8.769666  5.063169  8.516002
422   1 0.0000   8.769666  5.063169 32.855990
423   1 0.0000   8.769666  5.063169 57.195978
424   1 0.0000   8.769666  5.063169 81.535966
425   1 0.0000   5.846445 10.126338  8.516002
426   1 0.0000   5.846445 10.126338 32.855990
427   1 0.0000   5.846445 10.126338 57.195978
428   1 0.0000   5.846445 10.126338 81.535966
429   1 0.0000   2.923224 15.189506  8.516002
430   1 0.0000   2.923224 15.189506 32.855990
431   1 0.0000   2.923224 15.189506 57.195978
432   1 0.0000   2.923224 15.189506 81.535966
433   1 0.0000  17.539329  0.000000  8.516002
434   1 0.0000  17.539329  0.000000 32.855990
435   1 0.0000  17.539329  0.000000 57.195978
436   1 0.0000  17.539329  0.000000 81.535966
437   1 0.0000  14.616109  5.063169  8.516002
438   1 0.0000  14.616109  5.063169 32.855990
439   1 0.0000  14.616109  5.063169 57.195978
440   1 0.0000  14.616109  5.063169 81.535966
441   1 0.0000  11.692888 10.126338  8.516002
442   1 0.0000  11.692888 10.126338 32.855990
443   1 0.0000  11.692888 10.126338 57.195978
444   1 0.0000  11.692888 10.126338 81.535966
445   1 0.0000   8.769667 15.189506  8.516002
446   1 0.0000   8.769667 15.189506 32.855990
447   1 0.0000   8.769667 15.189506 57.195978
448   1 0.0000   8.769667 15.189506 81.535966
449   1 0.0000   2.923225  1.687721  5.899575
450   1 0.0000   2.923225  1.687721 30.239563
451   1 0.0000   2.923225  1.687721 54.579551
452   1 0.0000   2.923225  1.687721 78.919539
453   1 0.0000   0.000004  6.750890  5.899575
454   1 0.0000   0.000004  6.750890 30.239563
455   1 0.0000   0.000004  6.750890 54.579551
456   1 0.0000   0.000004  6.750890 78.919539
457   1 0.0000  -2.923217 11.814059  5.899575
458   1 0.0000  -2.923217 11.814059 30.239563
459   1 0.0000  -2.923217 11.814059 54.579551
460   1 0.0000  -2.923217 11.814059 78.919539
461   1 0.0000  -5.846437 16.877228  5.899575
462   1 0.0000  -5.846437 16.877228 30.239563
463   1 0.0000  -5.846437 16.877228 54.579551
464   1 0.0000  -5.846437 16.877228 78.919539
465   1 0.0000   8.769668  1.687721  5.899575
466   1 0.0000   8.769668  1.687721 30.239563
467   1 0.0000   8.769668  1.687721 54.579551
468   1 0.0000   8.769668  1.687721 78.919539
469   1 0.0000   5.846447  6.750890  5.899575
470   1 0.0000   5.846447  6.750890 30.239563
471   1 0.0000   5.846447  6.750890 54.579551
472   1 0.0000   5.846447  6.750890 78.919539
473   1 0.0000   2.923227 11.814059  5.899575
474   1 0.0000   2.923227 11.814059 30.239563
475   1 0.0000   2.923227 11.814059 54.579551
476   1 0.0000   2.923227 11.814059 78.919539
477   1 0.0000   0.000006 16.877228  5.899575
478   1 0.0000   0.000006 16.877228 30.239563
479   1 0.0000   0.000006 16.877228 54.579551
480   1 0.0000   0.000006 16.877228 78.919539
481   1 0.0000  14.616111  1.687721  5.899575
482   1 0.0000  14.616111  1.687721 30.239563
483   1 0.0000  14.616111  1.687721 54.579551
484   1 0.0000  14.616111  1.687721 78.919539
485   1 0.0000  11.692890  6.750890  5.899575
486   1 0.0000  11.692890  6.750890 30.239563
487   1 0.0000  11.692890  6.750890 54.579551
488   1 0.0000  11.692890  6.750890 78.919539
489   1 0.0000   8.769670 11.814059  5.899575
490   1 0.0000   8.769670 11.814059 30.239563
491   1 0.0000   8.769670 11.814059 54.579551
492   1 0.0000   8.769670 11.814059 78.919539
493   1 0.0000   5.846449 16.877228  5.899575
494   1 0.0000   5.846449 16.877228 30.239563
495   1 0.0000   5.846449 16.877228 54.579551
496   1 0.0000   5.846449 16.877228 78.919539
497   1 0.0000  20.462554  1.687721  5.899575
498   1 0.0000  20.462554  1.687721 30.239563
499   1 0.0000  20.462554  1.687721 54.579551
500   1 0.0000  20.462554  1.687721 78.919539
501   1 0.0000  17.539333  6.750890  5.899575
502   1 0.0000  17.539333  6.750890 30.239563
503   1 0.0000  17.539333  6.750890 54.579551
504   1 0.0000  17.539333  6.750890 78.919539
505   1 0.0000  14.616113 11.814059  5.899575
506   1 0.0000  14.616113 11.814059 30.239563
507   1 0.0000  14.616113 11.814059 54.579551
508   1 0.0000  14.616113 11.814059 78.919539
509   1 0.0000  11.692892 16.877228  5.899575
510   1 0.0000  11.692892 16.877228 30.239563
511   1 0.0000  11.692892 16.877228 54.579551
512   1 0.0000  11.692892 16.877228 78.919539
513   1 0.0000  -0.000002  3.375448 11.140680
514   1 0.0000  -0.000002  3.375448 35.480668
515   1 0.0000  -0.000002  3.375448 59.820656
516   1 0.0000  -0.000002  3.375448 84.160644
517   1 0.0000  -2.923223  8.438616 11.140680
518   1 0.0000  -2.923223  8.438616 35.480668
519   1 0.0000  -2.923223  8.438616 59.820656
520   1 0.0000  -2.923223  8.438616 84.160644
521   1 0.0000  -5.846444 13.501785 11.140680
522   1 0.0000  -5.846444 13.501785 35.480668
523   1 0.0000  -5.846444 13.501785 59.820656
524   1 0.0000  -5.846444 13.501785 84.160644
525   1 0.0000  -8.769664 18.564954 11.140680
526   1 0.0000  -8.769664 18.564954 35.480668
527   1 0.0000  -8.769664 18.564954 59.820656
528   1 0.0000  -8.769664 18.564954 84.160644
529   1 0.0000   5.846441  3.375448 11.140680
530   1 0.0000   5.846441  3.375448 35.480668
531   1 0.0000   5.846441  3.375448 59.820656
532   1 0.0000   5.846441  3.375448 84.160644
533   1 0.0000   2.923220  8.438616 11.140680
534   1 0.0000   2.923220  8.438616 35.480668
535   1 0.0000   2.923220  8.438616 59.820656
536   1 0.0000   2.923220  8.438616 84.160644
537   1 0.0000  -0.000001 13.501785 11.140680
538   1 0.0000  -0.000001 13.501785 35.480668
539   1 0.0000  -0.000001 13.501785 59.820656
540   1 0.0000  -0.000001 13.501785 84.160644
541   1 0.0000  -2.923221 18.564954 11.140680
542   1 0.0000  -2.923221 18.564954 35.480668
543   1 0.0000  -2.923221 18.564954 59.820656
544   1 0.0000  -2.923221 18.564954 84.160644
545   1 0.0000  11.692884  3.375448 11.140680
546   1 0.0000  11.692884  3.375448 35.480668
547   1 0.0000  11.692884  3.375448 59.820656
548   1 0.0000  11.692884  3.375448 84.160644
549   1 0.0000   8.769663  8.438616 11.140680
550   1 0.0000   8.769663  8.438616 35.480668
551   1 0.0000   8.769663  8.438616 59.820656
552   1 0.0000   8.769663  8.438616 84.160644
553   1 0.0000   5.846443 13.501785 11.140680
554   1 0.0000   5.846443 13.501785 35.480668
555   1 0.0000   5.846443 13.501785 59.820656
556   1 0.0000   5.846443 13.501785 84.160644
557   1 0.0000   2.923222 18.564954 11.140680
558   1 0.0000   2.923222 18.564954 35.480668
559   1 0.0000   2.923222 18.564954 59.820656
560   1 0.0000   2.923222 18.564954 84.160644
561   1 0.0000  17.539327  3.375448 11.140680
562   1 0.0000  17.539327  3.375448 35.480668
563   1 0.0000  17.539327  3.375448 59.820656
564   1 0.0000  17.539327  3.375448 84.160644
565   1 0.0000  14.616106  8.438616 11.140680
566   1 0.0000  14.616106  8.438616 35.480668
567   1 0.0000  14.616106  8.438616 59.820656
568   1 0.0000  14.616106  8.438616 84.160644
569   1 0.0000  11.692886 13.501785 11.140680
570   1 0.0000  11.692886 13.501785 35.480668
571   1 0.0000  11.692886 13.501785 59.820656
572   1 0.0000  11.692886 13.501785 84.160644
573   1 0.0000   8.769665 18.564954 11.140680
574   1 0.0000   8.769665 18.564954 35.480668
575   1 0.0000   8.769665 18.564954 59.820656
576   1 0.0000   8.769665 18.564954 84.160644
577   1 0.0000  -0.000002  3.375448 18.069569
578   1 0.0000  -0.000002  3.375448 42.409557
579   1 0.0000  -0.000002  3.375448 66.749545
580   1 0.0000  -0.000002  3.375448 91.089533
581   1 0.0000  -2.923223  8.438616 18.069569
582   1 0.0000  -2.923223  8.438616 42.409557
583   1 0.0000  -2.923223  8.438616 66.749545
584   1 0.0000  -2.923223  8.438616 91.089533
585   1 0.0000  -5.846444 13.501785 18.069569
586   1 0.0000  -5.846444 13.501785 42.409557
587   1 0.0000  -5.846444 13.501785 66.749545
588   1 0.0000  -5.846444 13.501785 91.089533
589   1 0.0000  -8.769664 18.564954 18.069569
590   1 0.0000  -8.769664 18.564954 42.409557
591   1 0.0000  -8.769664 18.564954 66.749545
592   1 0.0000  -8.769664 18.564954 91.089533
593   1 0.0000   5.846441  3.375448 18.069569
594   1 0.0000   5.846441  3.375448 42.409557
595   1 0.0000   5.846441  3.375448 66.749545
596   1 0.0000   5.846441  3.375448 91.089533
597   1 0.0000   2.923220  8.438616 18.069569
598   1 0.0000   2.923220  8.438616 42.409557
599   1 0.0000   2.923220  8.438616 66.749545
600   1 0.0000   2.923220  8.438616 91.089533
601   1 0.0000  -0.000001 13.501785 18.069569
602   1 0.0000  -0.000001 13.501785 42.409557
603   1 0.0000  -0.000001 13.501785 66.749545
604   1 0.0000  -0.000001 13.501785 91.089533
605   1 0.0000  -2.923221 18.564954 18.069569
606   1 0.0000  -2.923221 18.564954 42.409557
607   1 0.0000  -2.923221 18.564954 66.749545
608   1 0.0000  -2.923221 18.564954 91.089533
609   1 0.0000  11.692884  3.375448 18.069569
610   1 0.0000  11.692884  3.375448 42.409557
611   1 0.0000  11.692884  3.375448 66.749545
612   1 0.0000  11.692884  3.375448 91.089533
613   1 0.0000   8.769663  8.438616 18.069569
614   1 0.0000   8.769663  8.438616 42.409557
615   1 0.0000   8.769663  8.438616 66.749545
616   1 0.0000   8.769663  8.438616 91.089533
617   1 0.0000   5.846443 13.501785 18.069569
618   1 0.0000   5.846443 13.501785 42.409557
619   1 0.0000   5.846443 13.501785 66.749545
620   1 0.0000   5.846443 13.501785 91.089533
621   1 0.0000   2.923222 18.564954 18.069569
622   1 0.0000   2.923222 18.564954 42.409557
623   1 0.0000   2.923222 18.564954 66.749545
624   1 0.0000   2.923222 18.564954 91.089533
625   1 0.0000  17.539327  3.375448 18.069569
626   1 0.0000  17.539327  3.375448 42.409557
627   1 0.0000  17.539327  3.375448 66.749545
628   1 0.0000  17.539327  3.375448 91.089533
629   1 0.0000  14.616106  8.438616 18.069569
630   1 0.0000  14.616106  8.438616 42.409557
631   1 0.0000  14.616106  8.438616 66.749545
632   1 0.0000  14.616106  8.438616 91.089533
633   1 0.0000  11.692886 13.501785 18.069569
634   1 0.0000  11.692886 13.501785 42.409557
635   1 0.0000  11.692886 13.501785 66.749545
636   1 0.0000  11.692886 13.501785 91.089533
637   1 0.0000   8.769665 18.564954 18.069569
638   1 0.0000   8.769665 18.564954 42.409557
639   1 0.0000   8.769665 18.564954 66.749545
640   1 0.0000   8.769665 18.564954 91.089533
641   2 0.0000   2.923225  1.687721 16.580595
642   2 0.0000   2.923225  1.687721 40.920583
643   2 0.0000   2.923225  1.687721 65.260571
644   2 0.0000   2.923225  1.687721 89.600559
645   2 0.0000   0.000004  6.750890 16.580595
646   2 0.0000   0.000004  6.750890 40.920583