LAMMPS data file via write_data, version 29 Aug 2024, timestep = 1451547, units = metal

4000 atoms
4 atom types

-12.071606620450321 49.689746620460326 xlo xhi
-12.032365862028106 49.528221862037775 ylo yhi
-10.435725815056497 42.95605281506164 zlo zhi
-4.973952381189165 28.40341330152209 30.79086867717373 xy xz yz

Masses

1 6.941
2 55.845
3 72.64
4 15.9994

Pair Coeffs # buck/coul/long

1 1388.77 0.3623 0
2 1388.77 0.3623 0
3 1388.77 0.3623 0
4 1388.77 0.3623 0

Atoms # charge

3843 4 -1.1812 -11.881756609729289 -8.820690985752028 -9.77782327589109 -21 -23 0
28 1 0.525 -8.216098574622064 -9.032741224834796 -7.701778708587233 -21 -23 -1
2944 4 -1.1812 -10.470909311077696 -4.636652660332557 -9.699706085580043 -21 -23 0
2064 4 -1.1812 -3.401713905112141 -8.128263662815865 -7.91581369418059 -21 -23 0
3444 4 -1.1812 -4.8893785217958925 -6.4997052727410685 -3.5825908123094363 -21 -23 0
3242 4 -1.1812 -0.9061368856087135 -10.795037251334383 -9.26649256315476 -21 -23 0
2223 4 -1.1812 -1.394865546985045 -6.656656509886813 -5.219278703658398 -21 -23 0
1214 2 1.575 -0.6506542411503595 -6.075473663782931 -2.5143824086175974 -21 -23 0
2563 4 -1.1812 -6.750263261118906 -5.964732906498393 -7.123022889569761 -21 -23 0
1814 3 2.1 -4.194088977482245 -6.161493116810732 -6.154148651378721 -21 -23 0
1218 2 1.575 -3.643685825042054 -10.03922544893305 -10.088785219338458 -21 -23 0
1439 2 1.575 -0.5246990434843646 -8.510430057092577 -7.346589610737104 -21 -23 0
1194 2 1.575 -7.941223786032905 -3.8965055698388245 -8.497259984786316 -21 -23 0
549 1 0.525 -7.436224386564978 -3.2972992026020638 -4.29835473777529 -21 -23 -1
3093 4 -1.1812 -6.503482928463793 -10.869474643665146 -10.153604690407995 -21 -23 0
3944 4 -1.1812 -3.694425074791061 -3.5640553443299403 -6.774825325678328 -21 -23 0
345 1 0.525 -0.19928681858925046 -3.22259422446829 -6.414703212932217 -21 -23 0
3695 4 -1.1812 -5.52891980865174 -3.113523946135782 -1.6172801612928875 -21 -23 0
2998 4 -1.1812 4.006188206453242 -10.107416799673832 -9.427293542794192 -21 -23 0
3469 4 -1.1812 1.1452583418500755 -7.586224180943246 -9.528668343569649 -21 -23 0
2968 4 -1.1812 2.2284959939945335 -8.5902178162105 -6.035547076089409 -21 -23 0
1593 3 2.1 3.6810303261053807 -7.728299130296389 -8.248265230915472 -21 -23 0
3873 4 -1.1812 5.754078494061787 -6.713511357836388 -6.929421247429457 -21 -23 0
1864 3 2.1 8.326989042343982 -6.10199820081093 -7.392084507179846 -21 -23 0
2119 4 -1.1812 8.023148546485722 -6.3914646493574505 -10.156652928063492 -21 -23 0
322 1 0.525 4.9030994405450805 -5.351717896809684 -3.776011360016968 -21 -22 -1
2248 4 -1.1812 8.999988102924082 -5.283605376188069 -4.678689767995752 -21 -23 0
3214 4 -1.1812 8.716717494023904 -3.343692293791671 -7.5195945388077154 -21 -23 0
3013 4 -1.1812 10.075956188314123 -8.15401089801655 -7.484865978447776 -22 -23 0
2720 4 -1.1812 1.7875605564947907 -4.78246103644926 -1.4052851207058656 -21 -23 0
3339 4 -1.1812 4.1417165123233595 -6.001524909141967 -10.414114553153265 -21 -23 0
1363 2 1.575 10.210799983194637 -10.827680089143273 -8.446620797950473 -21 -23 0
3238 4 -1.1812 12.976259898067209 -11.105083198300672 -9.285910855071922 -21 -23 0
1764 3 2.1 15.601736591536252 -11.014350075787382 -9.019920750961761 -22 -23 0
3764 4 -1.1812 16.12741418375625 -9.139278251766912 -7.207280286660227 -22 -23 0
3494 4 -1.1812 16.541576862444728 -7.030655061595107 -4.0809890765028 -21 -23 0
1244 2 1.575 10.469970672047882 -5.464783134982514 -2.1673104172487005 -21 -23 0
716 1 0.525 13.164674984884272 -7.38134641965546 -5.970837035500857 -21 -23 -1
3243 4 -1.1812 17.293333460819984 -5.302003000169303 -8.696480074469171 -21 -23 0
1994 3 2.1 17.720768026820192 -7.017894238880632 -6.505815405636659 -21 -23 0
742 1 0.525 20.147873331418413 -3.592058414474593 -2.7430050094231246 -21 -23 0
3744 4 -1.1812 19.42226926310089 -4.64433304000122 -6.064164530536565 -21 -23 0
2144 4 -1.1812 20.208261241321512 -8.054591976980415 -6.8790911485128845 -22 -23 0
2694 4 -1.1812 -9.794489978393084 1.7783886849201203 -4.9427190901392 -21 -23 0
2823 4 -1.1812 -9.300986394288241 3.8090131074911007 -8.831713182765762 -21 -23 0
1318 2 1.575 -8.34524194225176 1.3482165147454594 -7.613860885991462 -21 -23 0
2419 4 -1.1812 -7.495580951739446 -1.404394562162068 -7.223855947774427 -21 -23 0
1444 2 1.575 -4.429342891005203 -0.8350512106178716 -7.341839782105582 -21 -23 0
1569 3 2.1 -3.314391804740806 -1.564915746919823 -1.8407025239113688 -21 -23 0
1295 2 1.575 -7.1979336015641024 1.8029399462549573 -3.5749161061946184 -21 -23 0
3694 4 -1.1812 -5.791331974706899 1.8956609743230075 -6.2442780982122335 -21 -23 0
3314 4 -1.1812 -4.2894107741680365 0.6722548123182612 -3.087280765594057 -21 -23 0
3845 4 -1.1812 -2.11160513344576 0.8799935028766264 -6.585568121456578 -21 -23 0
2315 4 -1.1812 -0.9214878922791385 -1.4150121744367805 -3.1122031437502193 -21 -23 0
1844 3 2.1 -3.3852869861647825 2.88344377769749 -4.993793843664692 -21 -23 0
3219 4 -1.1812 -0.801673249652211 3.127426901434884 -4.012603577517956 -21 -23 0
1219 2 1.575 0.3139858141630416 0.5981989665005525 -4.762506415543843 -21 -23 0
2061 4 -1.1812 -5.239350941511193 4.0197042127405265 -2.8937431104644546 -21 -23 -1
237 1 0.525 0.151714310853432 5.646115080044902 -6.795655598687005 -21 -23 0
3574 4 -1.1812 -3.5632804476979594 5.461509149333962 -5.911560129117711 -21 -23 0
3094 4 -1.1812 -4.315574758992738 -0.5854937200354922 -10.206449508657597 -21 -23 0
386 1 0.525 -4.8924520164676455 3.3216903002845406 -10.054495173620523 -21 -23 -1
294 1 0.525 -1.1041489563867373 1.0723428156144834 -10.236259595488946 -22 -23 0
3344 4 -1.1812 2.7463247432420115 -0.15704713920123936 -6.052010057394774 -21 -23 0
3690 4 -1.1812 2.673438644766227 -0.11159674259814345 -2.4787553018110384 -21 -23 0
1714 3 2.1 4.788796564107972 0.18093912150925817 -4.176585382699508 -21 -23 0
616 1 0.525 5.081687537587516 -2.436914612954711 -8.080039323576754 -21 -23 -1
2089 4 -1.1812 6.390070102128178 -2.0348532537672455 -3.899259764819178 -21 -23 0
2744 4 -1.1812 6.508211128805581 1.029831226975844 -6.203719045117958 -21 -23 0
872 1 0.525 4.874549179706115 1.9548004710493618 -9.050637811534882 -22 -23 0
3364 4 -1.1812 5.994488511925702 2.1779761826367654 -2.7494655348671486 -21 -23 0
1743 3 2.1 8.834505220653092 -2.438319130599764 -4.95567625845722 -21 -23 0
1594 3 2.1 8.702625578694946 2.3908496349332466 -5.8142222867952915 -21 -23 0
2250 4 -1.1812 8.957255588091598 4.489229504273618 -4.249966773973846 -21 -23 0
3498 4 -1.1812 10.04715833900956 0.1059872190950717 -5.162085724460243 -21 -23 0
2245 4 -1.1812 9.567212252645078 3.4321217838171663 -8.068994412724964 -21 -23 0
367 1 0.525 4.2443817301398425 6.058230071977649 -3.434880445002841 -20 -23 -1
1249 2 1.575 10.580910283869475 4.943505557616698 -10.235150188296368 -21 -23 0
2244 4 -1.1812 10.505145033445238 -2.5584185625969873 -2.696688948135167 -21 -23 0
2839 4 -1.1812 13.933215224881394 -1.251687445641494 -4.547468976471699 -21 -23 0
1739 3 2.1 12.046364739604687 -0.11556266430141093 -3.0010276412524672 -21 -23 0
759 1 0.525 11.124658710263645 0.4476756192223448 -9.028142073490635 -22 -23 0
2120 4 -1.1812 14.679050307058539 1.3351562996619926 -8.584477078708622 -21 -23 0
1373 2 1.575 15.64547879182976 0.04315265076103181 -6.227488433330924 -21 -23 0
2844 4 -1.1812 13.393365387981927 2.531765894262289 -3.470798220707108 -21 -23 0
407 1 0.525 15.781723143138958 -2.359207203126582 -1.8298192290283353 -22 -24 0
2745 4 -1.1812 17.519002847028954 1.9392120567073263 -5.101973625027202 -21 -23 0
224 1 0.525 12.651047838750895 4.796929668243907 -6.048113017652524 -21 -23 0
1124 2 1.575 15.908100549621285 3.8881958648763515 -3.246139562263137 -21 -23 0
2750 4 -1.1812 10.339366310526078 1.6892235906285045 -1.5251808757976053 -21 -23 0
3970 4 -1.1812 18.52881551113882 5.218285621592214 -3.364695343245906 -21 -23 0
2894 4 -1.1812 18.08459084884486 -1.047214310606881 -7.945120770233361 -22 -23 0
2479 4 -1.1812 17.446627258146883 4.0176149939424715 -9.287819493423891 -21 -24 0
2094 4 -1.1812 13.323034770152145 5.612629840425166 -9.373187431436364 -21 -23 0
1869 3 2.1 14.620989562334696 3.409349317295323 -10.24687355331207 -21 -23 0
1398 2 1.575 18.907508231909556 1.7470715279359403 -8.129439331276147 -22 -23 0
813 1 0.525 15.147102349625236 -2.5988499620213066 -10.03808707585249 -22 -23 0
2500 4 -1.1812 21.322429044184684 2.0046565771679177 -1.7266372262959153 -21 -23 0
1494 2 1.575 20.113884472402322 2.96154645922325 -4.0614660676657515 -21 -23 0
2568 4 -1.1812 -10.962287733993676 7.693062851964905 -8.962572204900546 -21 -23 0
1424 2 1.575 -9.9391568793319 10.260522612180901 -9.928659835314878 -21 -23 0
1698 3 2.1 -11.446712233354438 12.80105136138947 -6.561049233205286 -21 -23 0
3920 4 -1.1812 -9.091480208149399 11.406009560395487 -7.295485495739965 -21 -23 0
1098 2 1.575 -8.210455099257945 6.606958662345855 -8.781735006233871 -21 -23 0
1319 2 1.575 -8.688378206301675 9.717577531465045 -4.907700427377843 -21 -23 0
2179 4 -1.1812 -10.658551618319173 14.474662292689343 -8.492551930047021 -21 -24 0
1573 3 2.1 -8.616741884432829 14.834930331169433 -10.210175296746142 -21 -23 0
1474 2 1.575 -5.708593263628933 6.620845083360743 -4.091744522621817 -21 -23 0
2695 4 -1.1812 -7.595352041945906 7.3266292571832015 -6.127345597719816 -21 -23 0
691 1 0.525 -3.2295200196337834 7.659318493093453 -9.138838822247033 -21 -23 -1
2569 4 -1.1812 -7.527924541707657 8.593267977620735 -2.5491875109599014 -21 -23 0
3849 4 -1.1812 -3.957885405607586 8.27484110164711 -2.269501491572529 -21 -23 0
1849 3 2.1 -5.57973276368412 10.418908438006563 -1.8010071097616112 -21 -23 0
3844 4 -1.1812 -6.0005487126990396 11.347625288559085 -4.3706663169034945 -21 -23 0
81 1 0.525 -2.3217753270270993 9.148014822038858 -5.2263313942254515 -20 -23 -1
2348 4 -1.1812 0.05227782874243836 11.285759648782081 -9.498308781992842 -21 -23 0
1224 2 1.575 -5.932753879193023 12.587200661327222 -6.871570837515823 -21 -23 0
3603 4 -1.1812 -4.795692263759017 12.246234613168705 -9.53392989236268 -21 -24 0
2099 4 -1.1812 0.09457048688365965 11.77264147138238 -5.269241021614852 -21 -23 0
1449 2 1.575 -0.5116424811518829 13.484046258005415 -7.621583280780984 -21 -23 0
2098 4 -1.1812 -7.104433206155621 8.998154380125035 -10.04044170843713 -21 -23 0
380 1 0.525 -1.8088435199518003 5.6352726772912956 -1.7289327936258518 -21 -23 0
2204 4 -1.1812 0.41296068886827086 7.358225970121795 -10.068192080675784 -21 -24 0
3554 4 -1.1812 -3.227219905865784 14.40626009432164 -7.025649428255819 -21 -24 0
905 1 0.525 -2.5391874295424692 14.164772138053868 -3.6706581553975837 -21 -24 0
3955 4 -1.1812 2.3767215860475854 8.389269092343442 -6.682691015987187 -21 -24 0
948 1 0.525 6.695035841086472 9.436416816743558 -5.368082704335363 -21 -23 0
1723 3 2.1 2.0292287226563204 9.413205852231494 -9.281429473298466 -21 -23 0
2225 4 -1.1812 2.638189168785896 9.622060183684857 -2.6079254362830206 -21 -23 0
1949 3 2.1 2.445791331131426 10.561785933904721 -5.136139470559604 -21 -23 0
2324 4 -1.1812 3.4922377368036965 11.47654779412843 -7.7460099893944 -21 -23 0
3874 4 -1.1812 4.141019185389329 12.581733058649265 -4.569599863601724 -21 -23 0
2111 4 -1.1812 7.360885787178365 7.97491104625894 -2.3253326496798574 -21 -23 -1
4000 4 -1.1812 8.840446995495828 12.28050081896245 -2.889674176576139 -21 -23 0
1974 3 2.1 4.282150040051505 14.13485935657514 -7.16965462578842 -21 -23 0
1104 2 1.575 6.336078069648039 13.624574690887554 -3.061767222997004 -21 -24 0
2849 4 -1.1812 5.427848581056857 14.721543714304401 -9.518486370503446 -21 -23 0
1499 2 1.575 9.83920369978711 7.105131721071748 -3.3894829036241254 -21 -23 0
76 1 0.525 1.8013210487148594 13.824441184792652 -2.4289802519835972 -21 -24 0
934 1 0.525 8.661163193045564 14.337196592144968 -7.78016902287387 -22 -24 0
707 1 0.525 10.979156282860696 9.265131795823224 -8.889968116354583 -21 -23 0
2619 4 -1.1812 14.835579954181071 6.612396651288934 -3.425811933148778 -21 -23 0
3023 4 -1.1812 11.161131178186054 9.464466556822833 -1.8869765281137036 -22 -23 0
2229 4 -1.1812 10.348620293183664 9.140517488328504 -5.433660923796457 -21 -24 0
206 1 0.525 16.02003987851507 7.170552212169683 -7.866623043018949 -21 -23 -1
1744 3 2.1 11.054347933868659 11.349965811355558 -4.057063591209121 -21 -23 0
1466 2 1.575 16.078018575533562 12.09328749609931 -3.1587935028184715 -21 -23 -1
1125 2 1.575 17.40732981857859 7.890062979307471 -2.916116160011229 -21 -23 0
3999 4 -1.1812 11.325482696487345 13.209759073530554 -6.025056658431063 -21 -23 0
3774 4 -1.1812 13.268198016073537 12.817843658555097 -3.2986217352534486 -22 -23 0
3274 4 -1.1812 17.75059795166973 10.166037006101943 -4.553101384730898 -22 -23 0
3475 4 -1.1812 15.983863598259138 14.33235145876918 -5.202110032121188 -21 -23 0
20 1 0.525 18.404081965973507 12.13312830948867 -7.2846914543541725 -22 -24 1
2679 4 -1.1812 -12.531921800962103 19.61223903480259 -9.777988473519036 -21 -24 0
1804 3 2.1 -13.836191156555019 22.019282991290453 -10.181101319536719 -21 -24 0
489 1 0.525 -9.599936654702718 21.108443056610902 -8.010479410761196 -20 -23 0
1679 3 2.1 -8.184373094869173 23.08072316461611 -3.764951293898305 -21 -24 0
969 1 0.525 -12.70966270629486 17.047465065362978 -7.676670665459781 -21 -23 0
2304 4 -1.1812 -8.030826489904388 20.82428134502964 -5.026253399677946 -21 -24 0
2724 4 -1.1812 -6.816418340717661 15.04280191932669 -8.13401537440661 -21 -23 0
1819 3 2.1 -4.239597072419227 15.246990890651093 -9.460706046419897 -21 -23 0
46 1 0.525 -4.918111791712189 21.269668822648 -7.640479626048639 -22 -24 0
788 1 0.525 -6.543940852126534 17.808542422180203 -6.028957748817995 -21 -24 0
2824 4 -1.1812 -4.464270434531731 18.014435318805695 -9.714534887486941 -21 -23 0
3225 4 -1.1812 -2.694184464820168 22.81633402867245 -5.597378547361085 -21 -23 0
1579 3 2.1 -0.8141632902627336 22.574711658908328 -3.549400919532675 -21 -24 0
3454 4 -1.1812 -1.8733051063585169 20.69672253844186 -1.9896978055791248 -21 -24 0
403 1 0.525 -0.4774171954791093 23.25982037019238 -8.077592978514874 -22 -24 0
3854 4 -1.1812 6.5983858237604025 22.00199654723913 -10.295585369426048 -21 -24 0
624 1 0.525 1.4714171642954312 18.8117053503628 -7.040556706922566 -21 -24 -1
2729 4 -1.1812 1.8328513754744922 15.196150849582219 -7.393478218019348 -21 -24 0
2599 4 -1.1812 6.115589082672855 15.290891430406264 -5.512127023876845 -21 -23 0
38 1 0.525 5.673121857939613 18.4346177146696 -2.2816693573383318 -21 -23 -1
2979 4 -1.1812 1.4046155235315236 21.88933349306948 -5.11374743800375 -21 -24 0
102 1 0.525 9.431574903103797 16.61738665184098 -2.852091915173586 -22 -23 0
938 1 0.525 8.081759975407131 20.645375206625104 -5.92314763089425 -21 -24 0
1229 2 1.575 4.383611485075285 22.70706506287037 -8.608594047343463 -21 -24 0
1854 3 2.1 3.570925362386772 22.92598281969859 -3.666135234738338 -21 -24 0
2984 4 -1.1812 5.211041672250673 22.584774654422333 -5.924642578601904 -21 -24 0
3954 4 -1.1812 2.1796906761945127 22.171183057503683 -10.184093982302224 -21 -24 0
2230 4 -1.1812 9.645309087606819 20.458293881519246 -2.2627422223061533 -21 -24 0
2725 4 -1.1812 1.433935471559531 23.175089011852904 -1.9746587617550275 -21 -23 0
1774 3 2.1 13.32725785091191 14.948276980110906 -5.341927848104117 -22 -23 0
2878 4 -1.1812 12.901505048999102 17.21819032009062 -3.836511879434504 -22 -24 0
2370 4 -1.1812 13.188591165652866 16.075483915545902 -7.861365393615096 -21 -23 0
1250 2 1.575 12.36093647927527 19.615906056067864 -2.1485484126667713 -21 -23 0
3609 4 -1.1812 14.09127062743822 21.56171933127738 -3.2727652525608883 -21 -24 0
269 1 0.525 16.236183095514782 18.074959153973808 -2.403080057641412 -21 -24 0
685 1 0.525 16.724943498064416 15.869363901980579 -8.53500284845994 -21 -24 0
178 1 0.525 11.921570525887603 22.39758443985967 -9.31645943359866 -21 -24 -1
1979 3 2.1 16.038349321999984 22.76096421882138 -4.513783104038408 -21 -24 0
741 1 0.525 14.272978807682133 19.246473658640184 -6.694484223852749 -20 -23 -1
3754 4 -1.1812 17.475492607405958 20.794426874910727 -5.591854641253733 -22 -24 0
235 1 0.525 19.110619624330386 15.66860684131757 -3.746082481290071 -21 -23 1
1603 3 2.1 12.198784403838971 16.296793186769705 -10.349049143413081 -21 -24 0
2933 4 -1.1812 -13.177958098638374 23.934312520075984 -8.47628846655534 -21 -24 0
3333 4 -1.1812 -11.550773121001594 28.090012328832586 -7.554599851843341 -21 -24 0
1083 2 1.575 -10.892651079370332 25.384254424478385 -7.551717173561725 -21 -24 0
569 1 0.525 -11.317986752827196 30.498460301103556 -4.648553459617816 -20 -23 -1
3934 4 -1.1812 -10.122710666327942 24.429761690529013 -4.9877308703447705 -21 -24 0
3179 4 -1.1812 -9.062867699311298 24.642558109127478 -9.60804489635541 -21 -24 0
1209 2 1.575 -10.188617764872351 30.172664148587778 -9.003408238489177 -21 -24 0
877 1 0.525 -8.146770149773927 27.579085129412455 -4.656291063290438 -22 -24 -1
2714 4 -1.1812 -9.709696262733758 32.43149543906553 -7.334719373543067 -21 -24 0
3659 4 -1.1812 -12.979293748659297 31.01958801698055 -10.252251269399276 -21 -24 0
2553 4 -1.1812 -6.108902939532453 24.71711363662753 -4.031056845343595 -21 -24 0
2184 4 -1.1812 -4.604284245193586 25.75540231578016 -7.877377845484056 -21 -24 0
1829 3 2.1 -3.8098729649176644 25.364209467017858 -5.295300100418802 -21 -24 0
1308 2 1.575 -6.5799567515104656 26.032691137460326 -9.87817577213541 -21 -24 0
3959 4 -1.1812 -7.248593213817564 28.462667662005103 -8.36922296014456 -21 -24 0
1959 3 2.1 -4.43370385835074 28.78828975102347 -8.092273293059483 -21 -24 0
2804 4 -1.1812 -3.985410285376707 28.191076808908853 -5.424121157306686 -21 -24 0
3600 4 -1.1812 -1.8684390893142293 25.175948741396596 -3.3883331609919907 -21 -23 0
3614 4 -1.1812 -1.7743922292435101 28.65219674312226 -8.921543354991577 -21 -24 0
389 1 0.525 -2.919309982104169 28.555907752620463 -2.226950661697996 -21 -23 -1
568 1 0.525 -0.8792864926591477 30.499615989591312 -5.696829438965336 -21 -24 0
55 1 0.525 -6.327721947539668 32.18411879097447 -5.646669130416857 -21 -24 0
3088 4 -1.1812 -4.4404999281601265 31.44642433205245 -8.39300874905594 -21 -24 0
924 1 0.525 0.9923536043660626 31.355658905469596 -9.644346666832421 -22 -23 0
956 1 0.525 0.7801611878067991 26.650183453977313 -1.741770144711938 -22 -24 -1
2484 4 -1.1812 4.418302468441357 25.467615906817613 -4.081156566918008 -21 -24 0
2829 4 -1.1812 5.484913853633856 25.428987662505854 -8.595044903609285 -21 -24 0
116 1 0.525 3.697104136669049 28.819684784270805 -4.2702085891000285 -21 -24 0
1984 3 2.1 6.806676969327096 25.14923641152025 -5.643521956762589 -21 -24 0
540 1 0.525 5.8865992422418145 28.957270558515418 -8.262855617949876 -22 -23 0
1108 2 1.575 7.861704207659297 24.488953667079066 -10.034391208541237 -21 -24 0
2859 4 -1.1812 8.153636930672121 24.040427332082245 -3.478685232327223 -21 -24 0
3984 4 -1.1812 7.503070238732274 27.79555677948354 -5.327837355361136 -21 -24 0
3228 4 -1.1812 8.873392270744844 24.41446152656632 -7.408804139264051 -21 -24 0
1234 2 1.575 9.220537388571326 30.02669453384302 -5.04500899394936 -21 -24 0
3960 4 -1.1812 1.9399290078892655 31.557851138952522 -2.9485733436943478 -21 -24 0
3109 4 -1.1812 9.211555547590496 31.26107139824974 -2.402647285937124 -21 -24 0
470 1 0.525 7.252706534565846 27.04571044506119 -1.720908310697947 -21 -23 0
3459 4 -1.1812 4.4068868501110785 32.24399219364255 -8.532308076413262 -21 -24 0
3709 4 -1.1812 8.310590391248027 31.79891490370479 -7.135182792624794 -21 -24 0
3979 4 -1.1812 14.771363542541863 24.036240144007614 -6.406479708996689 -21 -24 0
342 1 0.525 11.298692242736621 24.13066166511352 -4.977037705317797 -21 -23 -1
824 1 0.525 11.088106091554256 27.015527084600365 -8.331964952589985 -21 -23 -1
2603 4 -1.1812 11.973143884747838 29.534448199037946 -5.669900679613986 -21 -24 0
2629 4 -1.1812 17.551443632203036 24.341575283122225 -3.1152058990732843 -22 -24 0
1608 3 2.1 14.472858947852341 30.241475107127293 -6.227571859952632 -21 -24 0
3229 4 -1.1812 15.88336344245577 28.379156259234293 -7.392797232765152 -21 -24 0
2004 4 -1.1812 15.618190974416752 30.901180258487628 -3.9923902979815598 -22 -24 0
2884 4 -1.1812 14.331231680148072 32.29367738299889 -7.804069979859133 -22 -24 0
1133 2 1.575 15.486049670411365 25.807926492531926 -8.456440534958892 -22 -24 0
186 1 0.525 18.334030993528206 27.97921237480672 -4.774106741678144 -22 -24 0
746 1 0.525 19.010205649958024 32.42121781052273 -2.933686797299514 -20 -23 -1
350 1 0.525 12.729947172151395 30.677158349126103 -2.0363577499312533 -21 -24 0
780 1 0.525 -13.688829800093412 34.16873306324611 -8.370593922458184 -21 -24 0
2809 4 -1.1812 -11.869271605531079 36.266637898543046 -6.146375079052953 -21 -24 0
1304 2 1.575 -9.36207276008712 35.00520273479236 -6.2497441222674 -21 -24 0
1934 3 2.1 -11.76356163844652 38.97580108223458 -6.212568826036929 -21 -24 0
3685 4 -1.1812 -9.578789305659384 38.64792052466247 -7.9000078847148645 -21 -24 0
3084 4 -1.1812 -8.652123620139331 34.47072564065964 -3.4878598723844685 -21 -24 0
3334 4 -1.1812 -13.924091132562122 39.95490178963385 -7.528486732197431 -21 -24 0
3434 4 -1.1812 -10.582037587925957 41.318214543091244 -5.3888138868599755 -21 -24 0
2214 4 -1.1812 -6.822245227710863 40.77415353369276 -10.430171525489525 -21 -24 0
2810 4 -1.1812 -3.458520440749167 34.43474299863303 -5.526390696659331 -21 -24 0
1088 2 1.575 -3.0732426254457295 33.885865506755515 -8.391792411075851 -21 -24 0
678 1 0.525 -2.127483347572001 34.545085223117745 -2.3528352907862096 -22 -24 0
2685 4 -1.1812 -6.820957126387642 36.174918664931745 -7.091310241555559 -21 -24 0
2926 4 -1.1812 -5.487837275639314 37.22471362801906 -3.04157511355959 -21 -24 -1
1709 3 2.1 -4.503442347174874 36.915165810201024 -5.691142990288913 -21 -24 0
3184 4 -1.1812 -3.0161271465547674 36.93228217028973 -8.247637989535354 -21 -24 0
1834 3 2.1 -7.040047381301048 38.51306581336786 -8.82933714031242 -21 -24 0
2084 4 -1.1812 -2.3172404954935093 38.42570052363975 -4.622249299567313 -21 -24 0
433 1 0.525 -7.216899749726627 40.7592016260462 -4.60834688959158 -21 -24 0
3590 4 -1.1812 -5.169252784166911 39.41118734843649 -7.0332138697239035 -21 -24 0
1084 2 1.575 -3.439488670841186 39.1816033111125 -1.9964641973213892 -21 -24 0
1342 2 1.575 -2.1547978875864917 39.64030401742703 -7.38334979185811 -21 -24 0
1559 3 2.1 -7.310212826947076 35.83281195499658 -1.6748060528088746 -21 -24 0
3204 4 -1.1812 -0.3225943753675313 34.51581220472328 -9.051594800772634 -21 -24 0
807 1 0.525 0.043770229494175084 36.181496013839876 -6.069751608738643 -21 -24 -1
3468 4 -1.1812 0.002227962158276142 38.874293727240264 -9.365552382563418 -21 -24 0
3585 4 -1.1812 -4.685735114376382 41.70974343023067 -2.6383103090624167 -21 -24 0
285 1 0.525 -7.372547794164897 33.50283754966257 -9.889458667905224 -22 -24 1
822 1 0.525 5.489903723040875 32.88639564790678 -2.375250562628486 -21 -22 -1
688 1 0.525 2.6711690135647004 33.30166219596748 -5.738796750747581 -21 -23 -1
358 1 0.525 2.9284864772936334 36.01648784982934 -9.943747497156847 -21 -24 0
2359 4 -1.1812 6.435419965390853 35.605555526097454 -6.836464483325638 -21 -24 0
3488 4 -1.1812 3.0754066798413078 36.63961989414687 -4.458572374146014 -21 -24 0
1859 3 2.1 5.5538764399345375 37.1569888661068 -4.885429354513751 -21 -24 0
1613 3 2.1 6.672529501264158 33.46618808814739 -8.342848538758815 -21 -24 0
2989 4 -1.1812 6.939210202357305 36.37212768122838 -2.7993081559296664 -21 -24 0
445 1 0.525 1.2947858295499337 39.432994229775296 -3.2787908782378152 -21 -23 0
3859 4 -1.1812 6.195210449620252 39.71082773988516 -4.6730113357909415 -21 -24 0
395 1 0.525 9.982162683091026 34.6681735840027 -3.6430084867616452 -22 -24 0
1093 2 1.575 1.6730331814513164 41.17952261485996 -8.680472623753088 -21 -24 0
3259 4 -1.1812 4.316368023179898 40.70677905430668 -7.840640174973276 -22 -24 0
1334 2 1.575 8.420447253097613 40.52112128857169 -2.653527697395645 -21 -24 0
679 1 0.525 6.905071492707702 40.35731272339557 -10.103009088994526 -21 -24 0
811 1 0.525 10.428927708839936 38.25983239250849 -7.080514678950979 -21 -25 0
2489 4 -1.1812 13.072046559675687 36.75957393286106 -4.629412070671154 -21 -24 0
215 1 0.525 11.203524122345858 33.33874008925321 -8.330772102079193 -22 -24 1
1759 3 2.1 12.433509269184736 38.26574130286025 -2.645402989945798 -22 -24 0
39 1 0.525 15.120370571953515 34.278241073464585 -4.119975937393417 -21 -23 -1
3739 4 -1.1812 10.922481234426016 39.99632866393583 -4.303247107784141 -21 -24 0
3263 4 -1.1812 11.268555851121857 40.11340044665701 -9.84787805961824 -22 -24 0
797 1 0.525 14.635157665922776 37.02614385797542 -7.68242294747154 -22 -23 -1
3515 4 -1.1812 13.542586657661062 40.70133280814424 -2.0426013811573593 -22 -24 0
241 1 0.525 16.967027298980643 39.61362052835059 -5.442993073687252 -21 -24 0
606 1 0.525 -13.366801976959456 45.79252270741415 -6.599989639602146 -20 -24 -1
1684 3 2.1 -12.155926255754808 42.51104884335483 -3.612645522125637 -21 -24 0
2559 4 -1.1812 -11.218550259512666 44.985029979942844 -3.914226776090219 -21 -24 0
2219 4 -1.1812 -8.689839366862339 48.42115226215233 -9.569824819088085 -21 -24 0
755 1 0.525 -9.120575430553554 42.63681473143867 -8.261730544513945 -22 -25 1
4 1 0.525 -8.833272216855745 46.85995880422234 -5.745307713840539 -21 -24 0
258 1 0.525 -8.16331608135256 44.16815098910795 -2.2083357024472146 -23 -24 0
3869 4 -1.1812 -12.694396020835192 46.287361778474136 -10.095991893383786 -21 -24 0
1839 3 2.1 -6.04341169863581 47.80056781471396 -9.313557512911315 -21 -24 0
26 1 0.525 -4.01414648801377 43.73227051943742 -7.399750075603813 -21 -24 -1
2842 4 -1.1812 -2.4934629192220825 44.78991305261663 -4.400441460770983 -21 -24 0
3839 4 -1.1812 -6.49988649783211 45.20531281001775 -9.867209738020685 -21 -24 0
671 1 0.525 -1.2462924737747887 46.65804587437813 -9.441035509877995 -21 -23 0
2743 4 -1.1812 -5.220482283848801 47.483707030815246 -6.826458655762186 -21 -24 0
1459 2 1.575 -3.9749551087522352 47.3248441479359 -4.338732096692638 -21 -24 0
2085 4 -1.1812 -6.243977185761231 47.842110551201614 -2.708161349766387 -21 -24 0
3684 4 -1.1812 -0.46361976624470635 41.93721715660369 -6.728357383268841 -21 -24 0
278 1 0.525 0.3853854293822323 49.502376238212506 -6.541712951944915 -21 -24 0
1584 3 2.1 0.2622380983083765 43.85940309792629 -4.886159375559669 -21 -24 0
2965 4 -1.1812 -0.1906253976242951 43.62079721785101 -2.2213972990429536 -21 -24 0
3964 4 -1.1812 -2.1430673898075394 49.255665632389025 -3.3620142173827077 -21 -24 0
147 1 0.525 0.5312731852500221 47.220475715655674 -2.036450259881787 -21 -23 -1
1835 3 2.1 -2.8862956757707643 43.51232041998226 -1.82206750433 -21 -24 0
306 1 0.525 -11.678000452327021 47.32135189383759 -1.6245163212421623 -21 -24 0
2735 4 -1.1812 2.8164105561817063 42.76241792655155 -4.71716435638842 -21 -24 0
2740 4 -1.1812 5.562391353840603 44.53848024295778 -6.83985971775985 -21 -24 0
1964 3 2.1 5.277026322625982 42.13014642547764 -5.709199139251333 -21 -24 0
1089 2 1.575 4.244517406723212 46.541741859191546 -5.287853740892799 -21 -24 0
3463 4 -1.1812 1.3453414952515264 46.144603642364004 -5.659162556209483 -21 -24 0
2364 4 -1.1812 6.274591390288158 46.765841964814825 -3.0978825940018804 -21 -24 0
2239 4 -1.1812 7.016718312142963 42.97046417970377 -3.6668106316099016 -21 -24 0
292 1 0.525 8.13113748304006 46.19974194674974 -8.181068209757935 -21 -24 0
1989 3 2.1 8.682946515185513 45.03048190624831 -3.114438888128245 -21 -24 0
3714 4 -1.1812 4.45396114977267 49.04902647225386 -6.427458179765669 -21 -24 0
977 1 0.525 3.7649094294032945 45.91211866819717 -9.680559292592287 -21 -24 -1
758 1 0.525 6.970264225191752 50.30002637959553 -4.253454855411248 -22 -25 0
2260 4 -1.1812 17.75026497248725 44.836301215667206 -4.169138045138848 -22 -24 0
2639 4 -1.1812 13.617724458965832 45.15311173859746 -8.38475724852001 -22 -24 0
2240 4 -1.1812 14.914482322858028 47.042581551382014 -5.545383147750838 -21 -24 0
3264 4 -1.1812 11.480028351502767 48.178569915094926 -7.995132691522656 -22 -24 0
3014 4 -1.1812 14.24176204267507 42.033450138435214 -6.242582532263483 -22 -24 0
2669 4 -1.1812 13.613078392479409 44.73880846173965 -3.4582929436854015 -22 -24 0
1889 3 2.1 12.276558103157967 46.37794155309033 -6.036306421518313 -22 -24 0
1614 3 2.1 12.441249773379006 42.34025625138249 -4.112627087743424 -21 -24 0
2264 4 -1.1812 11.033189007671009 43.87087561998357 -6.105261811739575 -22 -24 0
3138 4 -1.1812 10.42250574983214 42.95345601442177 -2.235942797226477 -22 -24 0
2964 4 -1.1812 10.331250509385686 46.92939081697096 -4.215858570614082 -21 -24 0
1013 2 1.575 12.104506320548051 42.5615587599654 -8.564626789902771 -22 -24 0
1894 3 2.1 15.732972769614001 46.333213434936006 -2.997923264692319 -22 -24 0
3894 4 -1.1812 15.650230566234264 48.81896766600318 -2.060589993797087 -22 -24 0
27 1 0.525 11.857726114803238 50.68644077951975 -3.5770253239084235 -22 -25 0
562 1 0.525 15.988240100152069 50.205366979253064 -6.349989904496799 -22 -24 0
1258 2 1.575 16.076498648919305 44.3736182910312 -6.761370775321854 -22 -24 0
680 1 0.525 -7.2357690759160604 51.06539679742276 -3.1630501780664866 -21 -24 0
1338 2 1.575 -2.236027666218618 52.01418063537526 -3.361708496023361 -21 -24 0
3665 4 -1.1812 -0.3524764274237224 53.274083259760324 -1.7387936898519762 -21 -24 0
182 1 0.525 2.9222662422332597 52.503507239331164 -3.0081576982232354 -21 -25 0
1339 2 1.575 10.159134803415967 54.353028369241194 -1.6494216653380123 -21 -24 0
3594 4 -1.1812 7.372247093090081 53.965306784319445 -2.106580368029807 -21 -24 0
1940 3 2.1 -4.694538817674331 -5.694140534335694 -1.0643257982623433 -21 -23 0
3064 4 -1.1812 -2.2951882186577475 -4.114927927507368 -1.1002995470974335 -21 -23 0
704 1 0.525 -1.2965053274124934 -3.8647589991095472 2.7277920373919002 -20 -23 -1
62 1 0.525 9.642049175436771 -3.5261112191916926 3.2128061219210275 -21 -23 -1
208 1 0.525 6.623855085837722 -3.574413617658468 -0.3697098063051281 -20 -23 0
3209 4 -1.1812 14.879025773907493 -5.0672816908512175 0.16784303798226577 -21 -23 0
1969 3 2.1 9.704141693791549 57.08568932921717 2.732570822392134 -21 -24 0
992 1 0.525 23.178718899708432 -4.642219594077883 0.17433654268414248 -21 -23 -1