Generated by pymatgen.io.lammps.data.LammpsData

4000  atoms

   4  atom types

0.000000 37.618140  xlo xhi
0.000000 37.495856  ylo yhi
0.000000 32.520327  zlo zhi
-3.029578 17.300197 18.754369  xy xz yz

Masses

1   6.9410
2  55.8450
3  72.6400
4  15.9994

Atoms

1     1  0.5250  4.504945  6.251305  4.879812
2     1  0.5250  7.964984 10.002178 11.383877
3     1  0.5250 11.425023 13.753052 17.887942
4     1  0.5250 14.885063 17.503926 24.392008
5     1  0.5250 18.345102 21.254800 30.896073
6     1  0.5250  3.899029 13.750476  4.879812
7     1  0.5250  7.359068 17.501350 11.383877
8     1  0.5250 10.819108 21.252223 17.887942
9     1  0.5250 14.279147 25.003097 24.392008
10    1  0.5250 17.739186 28.753971 30.896073
11    1  0.5250  3.293113 21.249647  4.879812
12    1  0.5250  6.753153 25.000521 11.383877
13    1  0.5250 10.213192 28.751395 17.887942
14    1  0.5250 13.673231 32.502269 24.392008
15    1  0.5250 17.133271 36.253142 30.896073
16    1  0.5250  2.687198 28.748818  4.879812
17    1  0.5250  6.147237 32.499692 11.383877
18    1  0.5250  9.607276 36.250566 17.887942
19    1  0.5250 13.067316 40.001440 24.392008
20    1  0.5250 16.527355 43.752314 30.896073
21    1  0.5250  2.081282 36.247990  4.879812
22    1  0.5250  5.541321 39.998863 11.383877
23    1  0.5250  9.001361 43.749737 17.887942
24    1  0.5250 12.461400 47.500611 24.392008
25    1  0.5250 15.921439 51.251485 30.896073
26    1  0.5250 12.028573  6.251305  4.879812
27    1  0.5250 15.488612 10.002178 11.383877
28    1  0.5250 18.948651 13.753052 17.887942
29    1  0.5250 22.408691 17.503926 24.392008
30    1  0.5250 25.868730 21.254800 30.896073
31    1  0.5250 11.422657 13.750476  4.879812
32    1  0.5250 14.882696 17.501350 11.383877
33    1  0.5250 18.342736 21.252223 17.887942
34    1  0.5250 21.802775 25.003097 24.392008
35    1  0.5250 25.262815 28.753971 30.896073
36    1  0.5250 10.816741 21.249647  4.879812
37    1  0.5250 14.276781 25.000521 11.383877
38    1  0.5250 17.736820 28.751395 17.887942
39    1  0.5250 21.196859 32.502269 24.392008
40    1  0.5250 24.656899 36.253142 30.896073
41    1  0.5250 10.210826 28.748818  4.879812
42    1  0.5250 13.670865 32.499692 11.383877
43    1  0.5250 17.130904 36.250566 17.887942
44    1  0.5250 20.590944 40.001440 24.392008
45    1  0.5250 24.050983 43.752314 30.896073
46    1  0.5250  9.604910 36.247990  4.879812
47    1  0.5250 13.064949 39.998863 11.383877
48    1  0.5250 16.524989 43.749737 17.887942
49    1  0.5250 19.985028 47.500611 24.392008
50    1  0.5250 23.445068 51.251485 30.896073
51    1  0.5250 19.552201  6.251305  4.879812
52    1  0.5250 23.012240 10.002178 11.383877
53    1  0.5250 26.472280 13.753052 17.887942
54    1  0.5250 29.932319 17.503926 24.392008
55    1  0.5250 33.392358 21.254800 30.896073
56    1  0.5250 18.946285 13.750476  4.879812
57    1  0.5250 22.406324 17.501350 11.383877
58    1  0.5250 25.866364 21.252223 17.887942
59    1  0.5250 29.326403 25.003097 24.392008
60    1  0.5250 32.786443 28.753971 30.896073
61    1  0.5250 18.340369 21.249647  4.879812
62    1  0.5250 21.800409 25.000521 11.383877
63    1  0.5250 25.260448 28.751395 17.887942
64    1  0.5250 28.720488 32.502269 24.392008
65    1  0.5250 32.180527 36.253142 30.896073
66    1  0.5250 17.734454 28.748818  4.879812
67    1  0.5250 21.194493 32.499692 11.383877
68    1  0.5250 24.654532 36.250566 17.887942
69    1  0.5250 28.114572 40.001440 24.392008
70    1  0.5250 31.574611 43.752314 30.896073
71    1  0.5250 17.128538 36.247990  4.879812
72    1  0.5250 20.588577 39.998863 11.383877
73    1  0.5250 24.048617 43.749737 17.887942
74    1  0.5250 27.508656 47.500611 24.392008
75    1  0.5250 30.968696 51.251485 30.896073
76    1  0.5250 27.075829  6.251305  4.879812
77    1  0.5250 30.535868 10.002178 11.383877
78    1  0.5250 33.995908 13.753052 17.887942
79    1  0.5250 37.455947 17.503926 24.392008
80    1  0.5250 40.915986 21.254800 30.896073
81    1  0.5250 26.469913 13.750476  4.879812
82    1  0.5250 29.929953 17.501350 11.383877
83    1  0.5250 33.389992 21.252223 17.887942
84    1  0.5250 36.850031 25.003097 24.392008
85    1  0.5250 40.310071 28.753971 30.896073
86    1  0.5250 25.863997 21.249647  4.879812
87    1  0.5250 29.324037 25.000521 11.383877
88    1  0.5250 32.784076 28.751395 17.887942
89    1  0.5250 36.244116 32.502269 24.392008
90    1  0.5250 39.704155 36.253142 30.896073
91    1  0.5250 25.258082 28.748818  4.879812
92    1  0.5250 28.718121 32.499692 11.383877
93    1  0.5250 32.178161 36.250566 17.887942
94    1  0.5250 35.638200 40.001440 24.392008
95    1  0.5250 39.098239 43.752314 30.896073
96    1  0.5250 24.652166 36.247990  4.879812
97    1  0.5250 28.112205 39.998863 11.383877
98    1  0.5250 31.572245 43.749737 17.887942
99    1  0.5250 35.032284 47.500611 24.392008
100   1  0.5250 38.492324 51.251485 30.896073
101   1  0.5250 34.599457  6.251305  4.879812
102   1  0.5250 38.059496 10.002178 11.383877
103   1  0.5250 41.519536 13.753052 17.887942
104   1  0.5250 44.979575 17.503926 24.392008
105   1  0.5250 48.439614 21.254800 30.896073
106   1  0.5250 33.993541 13.750476  4.879812
107   1  0.5250 37.453581 17.501350 11.383877
108   1  0.5250 40.913620 21.252223 17.887942
109   1  0.5250 44.373659 25.003097 24.392008
110   1  0.5250 47.833699 28.753971 30.896073
111   1  0.5250 33.387626 21.249647  4.879812
112   1  0.5250 36.847665 25.000521 11.383877
113   1  0.5250 40.307704 28.751395 17.887942
114   1  0.5250 43.767744 32.502269 24.392008
115   1  0.5250 47.227783 36.253142 30.896073
116   1  0.5250 32.781710 28.748818  4.879812
117   1  0.5250 36.241749 32.499692 11.383877
118   1  0.5250 39.701789 36.250566 17.887942
119   1  0.5250 43.161828 40.001440 24.392008
120   1  0.5250 46.621867 43.752314 30.896073
121   1  0.5250 32.175794 36.247990  4.879812
122   1  0.5250 35.635834 39.998863 11.383877
123   1  0.5250 39.095873 43.749737 17.887942
124   1  0.5250 42.555912 47.500611 24.392008
125   1  0.5250 46.015952 51.251485 30.896073
126   1  0.5250  7.963809 10.000931  4.879805
127   1  0.5250 11.423848 13.751805 11.383870
128   1  0.5250 14.883888 17.502679 17.887936
129   1  0.5250 18.343927 21.253553 24.392001
130   1  0.5250 21.803966 25.004427 30.896066
131   1  0.5250  7.357893 17.500103  4.879805
132   1  0.5250 10.817933 21.250976 11.383870
133   1  0.5250 14.277972 25.001850 17.887936
134   1  0.5250 17.738011 28.752724 24.392001
135   1  0.5250 21.198051 32.503598 30.896066
136   1  0.5250  6.751977 24.999274  4.879805
137   1  0.5250 10.212017 28.750148 11.383870
138   1  0.5250 13.672056 32.501022 17.887936
139   1  0.5250 17.132096 36.251895 24.392001
140   1  0.5250 20.592135 40.002769 30.896066
141   1  0.5250  6.146062 32.498445  4.879805
142   1  0.5250  9.606101 36.249319 11.383870
143   1  0.5250 13.066141 40.000193 17.887936
144   1  0.5250 16.526180 43.751067 24.392001
145   1  0.5250 19.986219 47.501940 30.896066
146   1  0.5250  5.540146 39.997616  4.879805
147   1  0.5250  9.000185 43.748490 11.383870
148   1  0.5250 12.460225 47.499364 17.887936
149   1  0.5250 15.920264 51.250238 24.392001
150   1  0.5250 19.380304 55.001112 30.896066
151   1  0.5250 15.487437 10.000931  4.879805
152   1  0.5250 18.947476 13.751805 11.383870
153   1  0.5250 22.407516 17.502679 17.887936
154   1  0.5250 25.867555 21.253553 24.392001
155   1  0.5250 29.327594 25.004427 30.896066
156   1  0.5250 14.881521 17.500103  4.879805
157   1  0.5250 18.341561 21.250976 11.383870
158   1  0.5250 21.801600 25.001850 17.887936
159   1  0.5250 25.261639 28.752724 24.392001
160   1  0.5250 28.721679 32.503598 30.896066
161   1  0.5250 14.275605 24.999274  4.879805
162   1  0.5250 17.735645 28.750148 11.383870
163   1  0.5250 21.195684 32.501022 17.887936
164   1  0.5250 24.655724 36.251895 24.392001
165   1  0.5250 28.115763 40.002769 30.896066
166   1  0.5250 13.669690 32.498445  4.879805
167   1  0.5250 17.129729 36.249319 11.383870
168   1  0.5250 20.589769 40.000193 17.887936
169   1  0.5250 24.049808 43.751067 24.392001
170   1  0.5250 27.509847 47.501940 30.896066
171   1  0.5250 13.063774 39.997616  4.879805
172   1  0.5250 16.523814 43.748490 11.383870
173   1  0.5250 19.983853 47.499364 17.887936
174   1  0.5250 23.443892 51.250238 24.392001
175   1  0.5250 26.903932 55.001112 30.896066
176   1  0.5250 23.011065 10.000931  4.879805
177   1  0.5250 26.471104 13.751805 11.383870
178   1  0.5250 29.931144 17.502679 17.887936
179   1  0.5250 33.391183 21.253553 24.392001
180   1  0.5250 36.851222 25.004427 30.896066
181   1  0.5250 22.405149 17.500103  4.879805
182   1  0.5250 25.865189 21.250976 11.383870
183   1  0.5250 29.325228 25.001850 17.887936
184   1  0.5250 32.785267 28.752724 24.392001
185   1  0.5250 36.245307 32.503598 30.896066
186   1  0.5250 21.799234 24.999274  4.879805
187   1  0.5250 25.259273 28.750148 11.383870
188   1  0.5250 28.719312 32.501022 17.887936
189   1  0.5250 32.179352 36.251895 24.392001
190   1  0.5250 35.639391 40.002769 30.896066
191   1  0.5250 21.193318 32.498445  4.879805
192   1  0.5250 24.653357 36.249319 11.383870
193   1  0.5250 28.113397 40.000193 17.887936
194   1  0.5250 31.573436 43.751067 24.392001
195   1  0.5250 35.033475 47.501940 30.896066
196   1  0.5250 20.587402 39.997616  4.879805
197   1  0.5250 24.047442 43.748490 11.383870
198   1  0.5250 27.507481 47.499364 17.887936
199   1  0.5250 30.967520 51.250238 24.392001
200   1  0.5250 34.427560 55.001112 30.896066
201   1  0.5250 30.534693 10.000931  4.879805
202   1  0.5250 33.994732 13.751805 11.383870
203   1  0.5250 37.454772 17.502679 17.887936
204   1  0.5250 40.914811 21.253553 24.392001
205   1  0.5250 44.374850 25.004427 30.896066
206   1  0.5250 29.928777 17.500103  4.879805
207   1  0.5250 33.388817 21.250976 11.383870
208   1  0.5250 36.848856 25.001850 17.887936
209   1  0.5250 40.308895 28.752724 24.392001
210   1  0.5250 43.768935 32.503598 30.896066
211   1  0.5250 29.322862 24.999274  4.879805
212   1  0.5250 32.782901 28.750148 11.383870
213   1  0.5250 36.242940 32.501022 17.887936
214   1  0.5250 39.702980 36.251895 24.392001
215   1  0.5250 43.163019 40.002769 30.896066
216   1  0.5250 28.716946 32.498445  4.879805
217   1  0.5250 32.176985 36.249319 11.383870
218   1  0.5250 35.637025 40.000193 17.887936
219   1  0.5250 39.097064 43.751067 24.392001
220   1  0.5250 42.557103 47.501940 30.896066
221   1  0.5250 28.111030 39.997616  4.879805
222   1  0.5250 31.571070 43.748490 11.383870
223   1  0.5250 35.031109 47.499364 17.887936
224   1  0.5250 38.491148 51.250238 24.392001
225   1  0.5250 41.951188 55.001112 30.896066
226   1  0.5250 38.058321 10.000931  4.879805
227   1  0.5250 41.518360 13.751805 11.383870
228   1  0.5250 44.978400 17.502679 17.887936
229   1  0.5250 48.438439 21.253553 24.392001
230   1  0.5250 51.898478 25.004427 30.896066
231   1  0.5250 37.452405 17.500103  4.879805
232   1  0.5250 40.912445 21.250976 11.383870
233   1  0.5250 44.372484 25.001850 17.887936
234   1  0.5250 47.832523 28.752724 24.392001
235   1  0.5250 51.292563 32.503598 30.896066
236   1  0.5250 36.846490 24.999274  4.879805
237   1  0.5250 40.306529 28.750148 11.383870
238   1  0.5250 43.766568 32.501022 17.887936
239   1  0.5250 47.226608 36.251895 24.392001
240   1  0.5250 50.686647 40.002769 30.896066
241   1  0.5250 36.240574 32.498445  4.879805
242   1  0.5250 39.700613 36.249319 11.383870
243   1  0.5250 43.160653 40.000193 17.887936
244   1  0.5250 46.620692 43.751067 24.392001
245   1  0.5250 50.080731 47.501940 30.896066
246   1  0.5250 35.634658 39.997616  4.879805
247   1  0.5250 39.094698 43.748490 11.383870
248   1  0.5250 42.554737 47.499364 17.887936
249   1  0.5250 46.014776 51.250238 24.392001
250   1  0.5250 49.474816 55.001112 30.896066
251   1  0.5250  4.138759  3.119065  4.876416
252   1  0.5250  7.598799  6.869939 11.380482
253   1  0.5250 11.058838 10.620813 17.884547
254   1  0.5250 14.518878 14.371686 24.388612
255   1  0.5250 17.978917 18.122560 30.892678
256   1  0.5250  3.532844 10.618236  4.876416
257   1  0.5250  6.992883 14.369110 11.380482
258   1  0.5250 10.452922 18.119984 17.884547
259   1  0.5250 13.912962 21.870858 24.388612
260   1  0.5250 17.373001 25.621732 30.892678
261   1  0.5250  2.926928 18.117408  4.876416
262   1  0.5250  6.386967 21.868281 11.380482
263   1  0.5250  9.847007 25.619155 17.884547
264   1  0.5250 13.307046 29.370029 24.388612
265   1  0.5250 16.767086 33.120903 30.892678
266   1  0.5250  2.321012 25.616579  4.876416
267   1  0.5250  5.781052 29.367453 11.380482
268   1  0.5250  9.241091 33.118326 17.884547
269   1  0.5250 12.701130 36.869200 24.388612
270   1  0.5250 16.161170 40.620074 30.892678
271   1  0.5250  1.715097 33.115750  4.876416
272   1  0.5250  5.175136 36.866624 11.380482
273   1  0.5250  8.635175 40.617498 17.884547
274   1  0.5250 12.095215 44.368372 24.388612
275   1  0.5250 15.555254 48.119245 30.892678
276   1  0.5250 11.662387  3.119065  4.876416
277   1  0.5250 15.122427  6.869939 11.380482
278   1  0.5250 18.582466 10.620813 17.884547
279   1  0.5250 22.042506 14.371686 24.388612
280   1  0.5250 25.502545 18.122560 30.892678
281   1  0.5250 11.056472 10.618236  4.876416
282   1  0.5250 14.516511 14.369110 11.380482
283   1  0.5250 17.976551 18.119984 17.884547
284   1  0.5250 21.436590 21.870858 24.388612
285   1  0.5250 24.896629 25.621732 30.892678
286   1  0.5250 10.450556 18.117408  4.876416
287   1  0.5250 13.910595 21.868281 11.380482
288   1  0.5250 17.370635 25.619155 17.884547
289   1  0.5250 20.830674 29.370029 24.388612
290   1  0.5250 24.290714 33.120903 30.892678
291   1  0.5250  9.844640 25.616579  4.876416
292   1  0.5250 13.304680 29.367453 11.380482
293   1  0.5250 16.764719 33.118326 17.884547
294   1  0.5250 20.224759 36.869200 24.388612
295   1  0.5250 23.684798 40.620074 30.892678
296   1  0.5250  9.238725 33.115750  4.876416
297   1  0.5250 12.698764 36.866624 11.380482
298   1  0.5250 16.158803 40.617498 17.884547
299   1  0.5250 19.618843 44.368372 24.388612
300   1  0.5250 23.078882 48.119245 30.892678
301   1  0.5250 19.186015  3.119065  4.876416
302   1  0.5250 22.646055  6.869939 11.380482
303   1  0.5250 26.106094 10.620813 17.884547
304   1  0.5250 29.566134 14.371686 24.388612
305   1  0.5250 33.026173 18.122560 30.892678
306   1  0.5250 18.580100 10.618236  4.876416
307   1  0.5250 22.040139 14.369110 11.380482
308   1  0.5250 25.500179 18.119984 17.884547
309   1  0.5250 28.960218 21.870858 24.388612
310   1  0.5250 32.420257 25.621732 30.892678
311   1  0.5250 17.974184 18.117408  4.876416
312   1  0.5250 21.434224 21.868281 11.380482
313   1  0.5250 24.894263 25.619155 17.884547
314   1  0.5250 28.354302 29.370029 24.388612
315   1  0.5250 31.814342 33.120903 30.892678
316   1  0.5250 17.368268 25.616579  4.876416
317   1  0.5250 20.828308 29.367453 11.380482
318   1  0.5250 24.288347 33.118326 17.884547
319   1  0.5250 27.748387 36.869200 24.388612
320   1  0.5250 31.208426 40.620074 30.892678
321   1  0.5250 16.762353 33.115750  4.876416
322   1  0.5250 20.222392 36.866624 11.380482
323   1  0.5250 23.682432 40.617498 17.884547
324   1  0.5250 27.142471 44.368372 24.388612
325   1  0.5250 30.602510 48.119245 30.892678
326   1  0.5250 26.709644  3.119065  4.876416
327   1  0.5250 30.169683  6.869939 11.380482
328   1  0.5250 33.629722 10.620813 17.884547
329   1  0.5250 37.089762 14.371686 24.388612
330   1  0.5250 40.549801 18.122560 30.892678
331   1  0.5250 26.103728 10.618236  4.876416
332   1  0.5250 29.563767 14.369110 11.380482
333   1  0.5250 33.023807 18.119984 17.884547
334   1  0.5250 36.483846 21.870858 24.388612
335   1  0.5250 39.943885 25.621732 30.892678
336   1  0.5250 25.497812 18.117408  4.876416
337   1  0.5250 28.957852 21.868281 11.380482
338   1  0.5250 32.417891 25.619155 17.884547
339   1  0.5250 35.877930 29.370029 24.388612
340   1  0.5250 39.337970 33.120903 30.892678
341   1  0.5250 24.891897 25.616579  4.876416
342   1  0.5250 28.351936 29.367453 11.380482
343   1  0.5250 31.811975 33.118326 17.884547
344   1  0.5250 35.272015 36.869200 24.388612
345   1  0.5250 38.732054 40.620074 30.892678
346   1  0.5250 24.285981 33.115750  4.876416
347   1  0.5250 27.746020 36.866624 11.380482
348   1  0.5250 31.206060 40.617498 17.884547
349   1  0.5250 34.666099 44.368372 24.388612
350   1  0.5250 38.126138 48.119245 30.892678
351   1  0.5250 34.233272  3.119065  4.876416
352   1  0.5250 37.693311  6.869939 11.380482
353   1  0.5250 41.153350 10.620813 17.884547
354   1  0.5250 44.613390 14.371686 24.388612
355   1  0.5250 48.073429 18.122560 30.892678
356   1  0.5250 33.627356 10.618236  4.876416
357   1  0.5250 37.087395 14.369110 11.380482
358   1  0.5250 40.547435 18.119984 17.884547
359   1  0.5250 44.007474 21.870858 24.388612
360   1  0.5250 47.467513 25.621732 30.892678
361   1  0.5250 33.021440 18.117408  4.876416
362   1  0.5250 36.481480 21.868281 11.380482
363   1  0.5250 39.941519 25.619155 17.884547
364   1  0.5250 43.401558 29.370029 24.388612
365   1  0.5250 46.861598 33.120903 30.892678
366   1  0.5250 32.415525 25.616579  4.876416
367   1  0.5250 35.875564 29.367453 11.380482
368   1  0.5250 39.335603 33.118326 17.884547
369   1  0.5250 42.795643 36.869200 24.388612
370   1  0.5250 46.255682 40.620074 30.892678
371   1  0.5250 31.809609 33.115750  4.876416
372   1  0.5250 35.269648 36.866624 11.380482
373   1  0.5250 38.729688 40.617498 17.884547
374   1  0.5250 42.189727 44.368372 24.388612
375   1  0.5250 45.649766 48.119245 30.892678
376   1  0.5250  7.597629  6.868624  4.876423
377   1  0.5250 11.057668 10.619498 11.380488
378   1  0.5250 14.517708 14.370372 17.884554
379   1  0.5250 17.977747 18.121246 24.388619
380   1  0.5250 21.437786 21.872120 30.892684
381   1  0.5250  6.991713 14.367796  4.876423
382   1  0.5250 10.451753 18.118669 11.380488
383   1  0.5250 13.911792 21.869543 17.884554
384   1  0.5250 17.371831 25.620417 24.388619
385   1  0.5250 20.831871 29.371291 30.892684
386   1  0.5250  6.385798 21.866967  4.876423
387   1  0.5250  9.845837 25.617841 11.380488
388   1  0.5250 13.305876 29.368715 17.884554
389   1  0.5250 16.765916 33.119588 24.388619
390   1  0.5250 20.225955 36.870462 30.892684
391   1  0.5250  5.779882 29.366138  4.876423
392   1  0.5250  9.239921 33.117012 11.380488
393   1  0.5250 12.699961 36.867886 17.884554
394   1  0.5250 16.160000 40.618760 24.388619
395   1  0.5250 19.620039 44.369633 30.892684
396   1  0.5250  5.173966 36.865309  4.876423
397   1  0.5250  8.634006 40.616183 11.380488
398   1  0.5250 12.094045 44.367057 17.884554
399   1  0.5250 15.554084 48.117931 24.388619
400   1  0.5250 19.014124 51.868805 30.892684
401   1  0.5250 15.121257  6.868624  4.876423
402   1  0.5250 18.581296 10.619498 11.380488
403   1  0.5250 22.041336 14.370372 17.884554
404   1  0.5250 25.501375 18.121246 24.388619
405   1  0.5250 28.961415 21.872120 30.892684
406   1  0.5250 14.515341 14.367796  4.876423
407   1  0.5250 17.975381 18.118669 11.380488
408   1  0.5250 21.435420 21.869543 17.884554
409   1  0.5250 24.895459 25.620417 24.388619
410   1  0.5250 28.355499 29.371291 30.892684
411   1  0.5250 13.909426 21.866967  4.876423
412   1  0.5250 17.369465 25.617841 11.380488
413   1  0.5250 20.829504 29.368715 17.884554
414   1  0.5250 24.289544 33.119588 24.388619
415   1  0.5250 27.749583 36.870462 30.892684
416   1  0.5250 13.303510 29.366138  4.876423
417   1  0.5250 16.763549 33.117012 11.380488
418   1  0.5250 20.223589 36.867886 17.884554
419   1  0.5250 23.683628 40.618760 24.388619
420   1  0.5250 27.143667 44.369633 30.892684
421   1  0.5250 12.697594 36.865309  4.876423
422   1  0.5250 16.157634 40.616183 11.380488
423   1  0.5250 19.617673 44.367057 17.884554
424   1  0.5250 23.077712 48.117931 24.388619
425   1  0.5250 26.537752 51.868805 30.892684
426   1  0.5250 22.644885  6.868624  4.876423
427   1  0.5250 26.104924 10.619498 11.380488
428   1  0.5250 29.564964 14.370372 17.884554
429   1  0.5250 33.025003 18.121246 24.388619
430   1  0.5250 36.485043 21.872120 30.892684
431   1  0.5250 22.038969 14.367796  4.876423
432   1  0.5250 25.499009 18.118669 11.380488
433   1  0.5250 28.959048 21.869543 17.884554
434   1  0.5250 32.419088 25.620417 24.388619
435   1  0.5250 35.879127 29.371291 30.892684
436   1  0.5250 21.433054 21.866967  4.876423
437   1  0.5250 24.893093 25.617841 11.380488
438   1  0.5250 28.353132 29.368715 17.884554
439   1  0.5250 31.813172 33.119588 24.388619
440   1  0.5250 35.273211 36.870462 30.892684
441   1  0.5250 20.827138 29.366138  4.876423
442   1  0.5250 24.287177 33.117012 11.380488
443   1  0.5250 27.747217 36.867886 17.884554
444   1  0.5250 31.207256 40.618760 24.388619
445   1  0.5250 34.667296 44.369633 30.892684
446   1  0.5250 20.221222 36.865309  4.876423
447   1  0.5250 23.681262 40.616183 11.380488
448   1  0.5250 27.141301 44.367057 17.884554
449   1  0.5250 30.601340 48.117931 24.388619
450   1  0.5250 34.061380 51.868805 30.892684
451   1  0.5250 30.168513  6.868624  4.876423
452   1  0.5250 33.628552 10.619498 11.380488
453   1  0.5250 37.088592 14.370372 17.884554
454   1  0.5250 40.548631 18.121246 24.388619
455   1  0.5250 44.008671 21.872120 30.892684
456   1  0.5250 29.562597 14.367796  4.876423
457   1  0.5250 33.022637 18.118669 11.380488
458   1  0.5250 36.482676 21.869543 17.884554
459   1  0.5250 39.942716 25.620417 24.388619
460   1  0.5250 43.402755 29.371291 30.892684
461   1  0.5250 28.956682 21.866967  4.876423
462   1  0.5250 32.416721 25.617841 11.380488
463   1  0.5250 35.876761 29.368715 17.884554
464   1  0.5250 39.336800 33.119588 24.388619
465   1  0.5250 42.796839 36.870462 30.892684
466   1  0.5250 28.350766 29.366138  4.876423
467   1  0.5250 31.810805 33.117012 11.380488
468   1  0.5250 35.270845 36.867886 17.884554
469   1  0.5250 38.730884 40.618760 24.388619
470   1  0.5250 42.190924 44.369633 30.892684
471   1  0.5250 27.744850 36.865309  4.876423
472   1  0.5250 31.204890 40.616183 11.380488
473   1  0.5250 34.664929 44.367057 17.884554
474   1  0.5250 38.124969 48.117931 24.388619
475   1  0.5250 41.585008 51.868805 30.892684
476   1  0.5250 37.692141  6.868624  4.876423
477   1  0.5250 41.152181 10.619498 11.380488
478   1  0.5250 44.612220 14.370372 17.884554
479   1  0.5250 48.072259 18.121246 24.388619
480   1  0.5250 51.532299 21.872120 30.892684
481   1  0.5250 37.086225 14.367796  4.876423
482   1  0.5250 40.546265 18.118669 11.380488
483   1  0.5250 44.006304 21.869543 17.884554
484   1  0.5250 47.466344 25.620417 24.388619
485   1  0.5250 50.926383 29.371291 30.892684
486   1  0.5250 36.480310 21.866967  4.876423
487   1  0.5250 39.940349 25.617841 11.380488
488   1  0.5250 43.400389 29.368715 17.884554
489   1  0.5250 46.860428 33.119588 24.388619
490   1  0.5250 50.320467 36.870462 30.892684
491   1  0.5250 35.874394 29.366138  4.876423
492   1  0.5250 39.334434 33.117012 11.380488
493   1  0.5250 42.794473 36.867886 17.884554
494   1  0.5250 46.254512 40.618760 24.388619
495   1  0.5250 49.714552 44.369633 30.892684
496   1  0.5250 35.268478 36.865309  4.876423
497   1  0.5250 38.728518 40.616183 11.380488
498   1  0.5250 42.188557 44.367057 17.884554
499   1  0.5250 45.648597 48.117931 24.388619
500   1  0.5250 49.108636 51.868805 30.892684
501   1  0.5250  4.138172  3.118287  1.627818
502   1  0.5250  7.598211  6.869160  8.131883
503   1  0.5250 11.058251 10.620034 14.635949
504   1  0.5250 14.518290 14.370908 21.140014
505   1  0.5250 17.978329 18.121782 27.644079
506   1  0.5250  3.532256 10.617458  1.627818
507   1  0.5250  6.992296 14.368332  8.131883
508   1  0.5250 10.452335 18.119206 14.635949
509   1  0.5250 13.912374 21.870079 21.140014
510   1  0.5250 17.372414 25.620953 27.644079
511   1  0.5250  2.926340 18.116629  1.627818
512   1  0.5250  6.386380 21.867503  8.131883
513   1  0.5250  9.846419 25.618377 14.635949
514   1  0.5250 13.306459 29.369251 21.140014
515   1  0.5250 16.766498 33.120124 27.644079
516   1  0.5250  2.320425 25.615800  1.627818
517   1  0.5250  5.780464 29.366674  8.131883
518   1  0.5250  9.240504 33.117548 14.635949
519   1  0.5250 12.700543 36.868422 21.140014
520   1  0.5250 16.160582 40.619296 27.644079
521   1  0.5250  1.714509 33.114972  1.627818
522   1  0.5250  5.174548 36.865845  8.131883
523   1  0.5250  8.634588 40.616719 14.635949
524   1  0.5250 12.094627 44.367593 21.140014
525   1  0.5250 15.554667 48.118467 27.644079
526   1  0.5250 11.661800  3.118287  1.627818
527   1  0.5250 15.121839  6.869160  8.131883
528   1  0.5250 18.581879 10.620034 14.635949
529   1  0.5250 22.041918 14.370908 21.140014
530   1  0.5250 25.501957 18.121782 27.644079
531   1  0.5250 11.055884 10.617458  1.627818
532   1  0.5250 14.515924 14.368332  8.131883
533   1  0.5250 17.975963 18.119206 14.635949
534   1  0.5250 21.436002 21.870079 21.140014
535   1  0.5250 24.896042 25.620953 27.644079
536   1  0.5250 10.449969 18.116629  1.627818
537   1  0.5250 13.910008 21.867503  8.131883
538   1  0.5250 17.370047 25.618377 14.635949
539   1  0.5250 20.830087 29.369251 21.140014
540   1  0.5250 24.290126 33.120124 27.644079
541   1  0.5250  9.844053 25.615800  1.627818
542   1  0.5250 13.304092 29.366674  8.131883
543   1  0.5250 16.764132 33.117548 14.635949
544   1  0.5250 20.224171 36.868422 21.140014
545   1  0.5250 23.684210 40.619296 27.644079
546   1  0.5250  9.238137 33.114972  1.627818
547   1  0.5250 12.698177 36.865845  8.131883
548   1  0.5250 16.158216 40.616719 14.635949
549   1  0.5250 19.618255 44.367593 21.140014
550   1  0.5250 23.078295 48.118467 27.644079
551   1  0.5250 19.185428  3.118287  1.627818
552   1  0.5250 22.645467  6.869160  8.131883
553   1  0.5250 26.105507 10.620034 14.635949
554   1  0.5250 29.565546 14.370908 21.140014
555   1  0.5250 33.025585 18.121782 27.644079
556   1  0.5250 18.579512 10.617458  1.627818
557   1  0.5250 22.039552 14.368332  8.131883
558   1  0.5250 25.499591 18.119206 14.635949
559   1  0.5250 28.959630 21.870079 21.140014
560   1  0.5250 32.419670 25.620953 27.644079
561   1  0.5250 17.973597 18.116629  1.627818
562   1  0.5250 21.433636 21.867503  8.131883
563   1  0.5250 24.893675 25.618377 14.635949
564   1  0.5250 28.353715 29.369251 21.140014
565   1  0.5250 31.813754 33.120124 27.644079
566   1  0.5250 17.367681 25.615800  1.627818
567   1  0.5250 20.827720 29.366674  8.131883
568   1  0.5250 24.287760 33.117548 14.635949
569   1  0.5250 27.747799 36.868422 21.140014
570   1  0.5250 31.207838 40.619296 27.644079
571   1  0.5250 16.761765 33.114972  1.627818
572   1  0.5250 20.221805 36.865845  8.131883
573   1  0.5250 23.681844 40.616719 14.635949
574   1  0.5250 27.141883 44.367593 21.140014
575   1  0.5250 30.601923 48.118467 27.644079
576   1  0.5250 26.709056  3.118287  1.627818
577   1  0.5250 30.169095  6.869160  8.131883
578   1  0.5250 33.629135 10.620034 14.635949
579   1  0.5250 37.089174 14.370908 21.140014
580   1  0.5250 40.549213 18.121782 27.644079
581   1  0.5250 26.103140 10.617458  1.627818
582   1  0.5250 29.563180 14.368332  8.131883
583   1  0.5250 33.023219 18.119206 14.635949
584   1  0.5250 36.483258 21.870079 21.140014
585   1  0.5250 39.943298 25.620953 27.644079
586   1  0.5250 25.497225 18.116629  1.627818
587   1  0.5250 28.957264 21.867503  8.131883
588   1  0.5250 32.417303 25.618377 14.635949
589   1  0.5250 35.877343 29.369251 21.140014
590   1  0.5250 39.337382 33.120124 27.644079
591   1  0.5250 24.891309 25.615800  1.627818
592   1  0.5250 28.351348 29.366674  8.131883
593   1  0.5250 31.811388 33.117548 14.635949
594   1  0.5250 35.271427 36.868422 21.140014
595   1  0.5250 38.731466 40.619296 27.644079
596   1  0.5250 24.285393 33.114972  1.627818
597   1  0.5250 27.745433 36.865845  8.131883
598   1  0.5250 31.205472 40.616719 14.635949
599   1  0.5250 34.665511 44.367593 21.140014
600   1  0.5250 38.125551 48.118467 27.644079
601   1  0.5250 34.232684  3.118287  1.627818
602   1  0.5250 37.692723  6.869160  8.131883
603   1  0.5250 41.152763 10.620034 14.635949
604   1  0.5250 44.612802 14.370908 21.140014
605   1  0.5250 48.072841 18.121782 27.644079
606   1  0.5250 33.626768 10.617458  1.627818
607   1  0.5250 37.086808 14.368332  8.131883
608   1  0.5250 40.546847 18.119206 14.635949
609   1  0.5250 44.006886 21.870079 21.140014
610   1  0.5250 47.466926 25.620953 27.644079
611   1  0.5250 33.020853 18.116629  1.627818
612   1  0.5250 36.480892 21.867503  8.131883
613   1  0.5250 39.940931 25.618377 14.635949
614   1  0.5250 43.400971 29.369251 21.140014
615   1  0.5250 46.861010 33.120124 27.644079
616   1  0.5250 32.414937 25.615800  1.627818
617   1  0.5250 35.874976 29.366674  8.131883
618   1  0.5250 39.335016 33.117548 14.635949
619   1  0.5250 42.795055 36.868422 21.140014
620   1  0.5250 46.255094 40.619296 27.644079
621   1  0.5250 31.809021 33.114972  1.627818
622   1  0.5250 35.269061 36.865845  8.131883
623   1  0.5250 38.729100 40.616719 14.635949
624   1  0.5250 42.189139 44.367593 21.140014
625   1  0.5250 45.649179 48.118467 27.644079
626   1  0.5250  7.597063  6.867853  1.627772
627   1  0.5250 11.057103 10.618727  8.131838
628   1  0.5250 14.517142 14.369601 14.635903
629   1  0.5250 17.977181 18.120475 21.139968
630   1  0.5250 21.437221 21.871349 27.644034
631   1  0.5250  6.991148 14.367025  1.627772
632   1  0.5250 10.451187 18.117899  8.131838
633   1  0.5250 13.911226 21.868772 14.635903
634   1  0.5250 17.371266 25.619646 21.139968
635   1  0.5250 20.831305 29.370520 27.644034
636   1  0.5250  6.385232 21.866196  1.627772
637   1  0.5250  9.845271 25.617070  8.131838
638   1  0.5250 13.305311 29.367944 14.635903
639   1  0.5250 16.765350 33.118817 21.139968
640   1  0.5250 20.225389 36.869691 27.644034
641   1  0.5250  5.779316 29.365367  1.627772
642   1  0.5250  9.239356 33.116241  8.131838
643   1  0.5250 12.699395 36.867115 14.635903
644   1  0.5250 16.159434 40.617989 21.139968
645   1  0.5250 19.619474 44.368863 27.644034
646   1  0.5250  5.173401 36.864539  1.627772