Generated by pymatgen.io.lammps.data.LammpsData

3584  atoms

   4  atom types

0.000000 32.758555  xlo xhi
0.000000 32.758520  ylo yhi
0.000000 32.758651  zlo zhi
-0.000139 -0.000011 -0.000047  xy xz yz

Masses

1   6.9410
2  58.6934
3  72.6400
4  15.9994

Atoms

1     1  0.5250  4.122541  4.122574  4.122581
2     1  0.5250  4.122538  4.122562 12.312244
3     1  0.5250  4.122535  4.122550 20.501906
4     1  0.5250  4.122533  4.122539 28.691569
5     1  0.5250  4.122506 12.312204  4.122581
6     1  0.5250  4.122503 12.312192 12.312244
7     1  0.5250  4.122500 12.312180 20.501906
8     1  0.5250  4.122498 12.312169 28.691569
9     1  0.5250  4.122471 20.501834  4.122581
10    1  0.5250  4.122468 20.501822 12.312244
11    1  0.5250  4.122466 20.501810 20.501906
12    1  0.5250  4.122463 20.501798 28.691569
13    1  0.5250  4.122436 28.691464  4.122581
14    1  0.5250  4.122433 28.691452 12.312244
15    1  0.5250  4.122431 28.691440 20.501906
16    1  0.5250  4.122428 28.691428 28.691569
17    1  0.5250 12.312179  4.122574  4.122581
18    1  0.5250 12.312177  4.122562 12.312244
19    1  0.5250 12.312174  4.122550 20.501906
20    1  0.5250 12.312171  4.122539 28.691569
21    1  0.5250 12.312145 12.312204  4.122581
22    1  0.5250 12.312142 12.312192 12.312244
23    1  0.5250 12.312139 12.312180 20.501906
24    1  0.5250 12.312136 12.312169 28.691569
25    1  0.5250 12.312110 20.501834  4.122581
26    1  0.5250 12.312107 20.501822 12.312244
27    1  0.5250 12.312104 20.501810 20.501906
28    1  0.5250 12.312102 20.501798 28.691569
29    1  0.5250 12.312075 28.691464  4.122581
30    1  0.5250 12.312072 28.691452 12.312244
31    1  0.5250 12.312069 28.691440 20.501906
32    1  0.5250 12.312067 28.691428 28.691569
33    1  0.5250 20.501818  4.122574  4.122581
34    1  0.5250 20.501816  4.122562 12.312244
35    1  0.5250 20.501813  4.122550 20.501906
36    1  0.5250 20.501810  4.122539 28.691569
37    1  0.5250 20.501783 12.312204  4.122581
38    1  0.5250 20.501781 12.312192 12.312244
39    1  0.5250 20.501778 12.312180 20.501906
40    1  0.5250 20.501775 12.312169 28.691569
41    1  0.5250 20.501749 20.501834  4.122581
42    1  0.5250 20.501746 20.501822 12.312244
43    1  0.5250 20.501743 20.501810 20.501906
44    1  0.5250 20.501740 20.501798 28.691569
45    1  0.5250 20.501714 28.691464  4.122581
46    1  0.5250 20.501711 28.691452 12.312244
47    1  0.5250 20.501708 28.691440 20.501906
48    1  0.5250 20.501706 28.691428 28.691569
49    1  0.5250 28.691457  4.122574  4.122581
50    1  0.5250 28.691454  4.122562 12.312244
51    1  0.5250 28.691452  4.122550 20.501906
52    1  0.5250 28.691449  4.122539 28.691569
53    1  0.5250 28.691422 12.312204  4.122581
54    1  0.5250 28.691419 12.312192 12.312244
55    1  0.5250 28.691417 12.312180 20.501906
56    1  0.5250 28.691414 12.312169 28.691569
57    1  0.5250 28.691387 20.501834  4.122581
58    1  0.5250 28.691385 20.501822 12.312244
59    1  0.5250 28.691382 20.501810 20.501906
60    1  0.5250 28.691379 20.501798 28.691569
61    1  0.5250 28.691352 28.691464  4.122581
62    1  0.5250 28.691350 28.691452 12.312244
63    1  0.5250 28.691347 28.691440 20.501906
64    1  0.5250 28.691344 28.691428 28.691569
65    1  0.5250  2.075113  2.019679  6.169964
66    1  0.5250  2.075110  2.019668 14.359626
67    1  0.5250  2.075107  2.019656 22.549289
68    1  0.5250  2.075105  2.019644 30.738952
69    1  0.5250  2.075078 10.209309  6.169964
70    1  0.5250  2.075075 10.209297 14.359626
71    1  0.5250  2.075072 10.209286 22.549289
72    1  0.5250  2.075070 10.209274 30.738952
73    1  0.5250  2.075043 18.398939  6.169964
74    1  0.5250  2.075040 18.398927 14.359626
75    1  0.5250  2.075038 18.398916 22.549289
76    1  0.5250  2.075035 18.398904 30.738952
77    1  0.5250  2.075008 26.588569  6.169964
78    1  0.5250  2.075005 26.588557 14.359626
79    1  0.5250  2.075003 26.588546 22.549289
80    1  0.5250  2.075000 26.588534 30.738952
81    1  0.5250 10.264752  2.019679  6.169964
82    1  0.5250 10.264749  2.019668 14.359626
83    1  0.5250 10.264746  2.019656 22.549289
84    1  0.5250 10.264743  2.019644 30.738952
85    1  0.5250 10.264717 10.209309  6.169964
86    1  0.5250 10.264714 10.209297 14.359626
87    1  0.5250 10.264711 10.209286 22.549289
88    1  0.5250 10.264709 10.209274 30.738952
89    1  0.5250 10.264682 18.398939  6.169964
90    1  0.5250 10.264679 18.398927 14.359626
91    1  0.5250 10.264676 18.398916 22.549289
92    1  0.5250 10.264674 18.398904 30.738952
93    1  0.5250 10.264647 26.588569  6.169964
94    1  0.5250 10.264644 26.588557 14.359626
95    1  0.5250 10.264642 26.588546 22.549289
96    1  0.5250 10.264639 26.588534 30.738952
97    1  0.5250 18.454390  2.019679  6.169964
98    1  0.5250 18.454388  2.019668 14.359626
99    1  0.5250 18.454385  2.019656 22.549289
100   1  0.5250 18.454382  2.019644 30.738952
101   1  0.5250 18.454356 10.209309  6.169964
102   1  0.5250 18.454353 10.209297 14.359626
103   1  0.5250 18.454350 10.209286 22.549289
104   1  0.5250 18.454347 10.209274 30.738952
105   1  0.5250 18.454321 18.398939  6.169964
106   1  0.5250 18.454318 18.398927 14.359626
107   1  0.5250 18.454315 18.398916 22.549289
108   1  0.5250 18.454313 18.398904 30.738952
109   1  0.5250 18.454286 26.588569  6.169964
110   1  0.5250 18.454283 26.588557 14.359626
111   1  0.5250 18.454280 26.588546 22.549289
112   1  0.5250 18.454278 26.588534 30.738952
113   1  0.5250 26.644029  2.019679  6.169964
114   1  0.5250 26.644026  2.019668 14.359626
115   1  0.5250 26.644024  2.019656 22.549289
116   1  0.5250 26.644021  2.019644 30.738952
117   1  0.5250 26.643994 10.209309  6.169964
118   1  0.5250 26.643992 10.209297 14.359626
119   1  0.5250 26.643989 10.209286 22.549289
120   1  0.5250 26.643986 10.209274 30.738952
121   1  0.5250 26.643959 18.398939  6.169964
122   1  0.5250 26.643957 18.398927 14.359626
123   1  0.5250 26.643954 18.398916 22.549289
124   1  0.5250 26.643951 18.398904 30.738952
125   1  0.5250 26.643925 26.588569  6.169964
126   1  0.5250 26.643922 26.588557 14.359626
127   1  0.5250 26.643919 26.588546 22.549289
128   1  0.5250 26.643916 26.588534 30.738952
129   1  0.5250  6.169970  2.075152  2.019670
130   1  0.5250  6.169967  2.075140 10.209332
131   1  0.5250  6.169965  2.075129 18.398995
132   1  0.5250  6.169962  2.075117 26.588658
133   1  0.5250  6.169935 10.264782  2.019670
134   1  0.5250  6.169932 10.264770 10.209332
135   1  0.5250  6.169930 10.264758 18.398995
136   1  0.5250  6.169927 10.264747 26.588658
137   1  0.5250  6.169900 18.454412  2.019670
138   1  0.5250  6.169898 18.454400 10.209332
139   1  0.5250  6.169895 18.454388 18.398995
140   1  0.5250  6.169892 18.454377 26.588658
141   1  0.5250  6.169865 26.644042  2.019670
142   1  0.5250  6.169863 26.644030 10.209332
143   1  0.5250  6.169860 26.644018 18.398995
144   1  0.5250  6.169857 26.644006 26.588658
145   1  0.5250 14.359609  2.075152  2.019670
146   1  0.5250 14.359606  2.075140 10.209332
147   1  0.5250 14.359603  2.075129 18.398995
148   1  0.5250 14.359601  2.075117 26.588658
149   1  0.5250 14.359574 10.264782  2.019670
150   1  0.5250 14.359571 10.264770 10.209332
151   1  0.5250 14.359568 10.264758 18.398995
152   1  0.5250 14.359566 10.264747 26.588658
153   1  0.5250 14.359539 18.454412  2.019670
154   1  0.5250 14.359536 18.454400 10.209332
155   1  0.5250 14.359534 18.454388 18.398995
156   1  0.5250 14.359531 18.454377 26.588658
157   1  0.5250 14.359504 26.644042  2.019670
158   1  0.5250 14.359501 26.644030 10.209332
159   1  0.5250 14.359499 26.644018 18.398995
160   1  0.5250 14.359496 26.644006 26.588658
161   1  0.5250 22.549248  2.075152  2.019670
162   1  0.5250 22.549245  2.075140 10.209332
163   1  0.5250 22.549242  2.075129 18.398995
164   1  0.5250 22.549239  2.075117 26.588658
165   1  0.5250 22.549213 10.264782  2.019670
166   1  0.5250 22.549210 10.264770 10.209332
167   1  0.5250 22.549207 10.264758 18.398995
168   1  0.5250 22.549205 10.264747 26.588658
169   1  0.5250 22.549178 18.454412  2.019670
170   1  0.5250 22.549175 18.454400 10.209332
171   1  0.5250 22.549172 18.454388 18.398995
172   1  0.5250 22.549170 18.454377 26.588658
173   1  0.5250 22.549143 26.644042  2.019670
174   1  0.5250 22.549140 26.644030 10.209332
175   1  0.5250 22.549138 26.644018 18.398995
176   1  0.5250 22.549135 26.644006 26.588658
177   1  0.5250 30.738886  2.075152  2.019670
178   1  0.5250 30.738884  2.075140 10.209332
179   1  0.5250 30.738881  2.075129 18.398995
180   1  0.5250 30.738878  2.075117 26.588658
181   1  0.5250 30.738851 10.264782  2.019670
182   1  0.5250 30.738849 10.264770 10.209332
183   1  0.5250 30.738846 10.264758 18.398995
184   1  0.5250 30.738843 10.264747 26.588658
185   1  0.5250 30.738817 18.454412  2.019670
186   1  0.5250 30.738814 18.454400 10.209332
187   1  0.5250 30.738811 18.454388 18.398995
188   1  0.5250 30.738808 18.454377 26.588658
189   1  0.5250 30.738782 26.644042  2.019670
190   1  0.5250 30.738779 26.644030 10.209332
191   1  0.5250 30.738776 26.644018 18.398995
192   1  0.5250 30.738774 26.644006 26.588658
193   1  0.5250  2.019633  6.169995  2.075145
194   1  0.5250  2.019630  6.169984 10.264807
195   1  0.5250  2.019627  6.169972 18.454470
196   1  0.5250  2.019624  6.169960 26.644133
197   1  0.5250  2.019598 14.359625  2.075145
198   1  0.5250  2.019595 14.359613 10.264807
199   1  0.5250  2.019592 14.359602 18.454470
200   1  0.5250  2.019590 14.359590 26.644133
201   1  0.5250  2.019563 22.549255  2.075145
202   1  0.5250  2.019560 22.549243 10.264807
203   1  0.5250  2.019557 22.549232 18.454470
204   1  0.5250  2.019555 22.549220 26.644133
205   1  0.5250  2.019528 30.738885  2.075145
206   1  0.5250  2.019525 30.738873 10.264807
207   1  0.5250  2.019523 30.738861 18.454470
208   1  0.5250  2.019520 30.738850 26.644133
209   1  0.5250 10.209271  6.169995  2.075145
210   1  0.5250 10.209269  6.169984 10.264807
211   1  0.5250 10.209266  6.169972 18.454470
212   1  0.5250 10.209263  6.169960 26.644133
213   1  0.5250 10.209237 14.359625  2.075145
214   1  0.5250 10.209234 14.359613 10.264807
215   1  0.5250 10.209231 14.359602 18.454470
216   1  0.5250 10.209228 14.359590 26.644133
217   1  0.5250 10.209202 22.549255  2.075145
218   1  0.5250 10.209199 22.549243 10.264807
219   1  0.5250 10.209196 22.549232 18.454470
220   1  0.5250 10.209194 22.549220 26.644133
221   1  0.5250 10.209167 30.738885  2.075145
222   1  0.5250 10.209164 30.738873 10.264807
223   1  0.5250 10.209161 30.738861 18.454470
224   1  0.5250 10.209159 30.738850 26.644133
225   1  0.5250 18.398910  6.169995  2.075145
226   1  0.5250 18.398908  6.169984 10.264807
227   1  0.5250 18.398905  6.169972 18.454470
228   1  0.5250 18.398902  6.169960 26.644133
229   1  0.5250 18.398875 14.359625  2.075145
230   1  0.5250 18.398873 14.359613 10.264807
231   1  0.5250 18.398870 14.359602 18.454470
232   1  0.5250 18.398867 14.359590 26.644133
233   1  0.5250 18.398841 22.549255  2.075145
234   1  0.5250 18.398838 22.549243 10.264807
235   1  0.5250 18.398835 22.549232 18.454470
236   1  0.5250 18.398832 22.549220 26.644133
237   1  0.5250 18.398806 30.738885  2.075145
238   1  0.5250 18.398803 30.738873 10.264807
239   1  0.5250 18.398800 30.738861 18.454470
240   1  0.5250 18.398798 30.738850 26.644133
241   1  0.5250 26.588549  6.169995  2.075145
242   1  0.5250 26.588546  6.169984 10.264807
243   1  0.5250 26.588544  6.169972 18.454470
244   1  0.5250 26.588541  6.169960 26.644133
245   1  0.5250 26.588514 14.359625  2.075145
246   1  0.5250 26.588511 14.359613 10.264807
247   1  0.5250 26.588509 14.359602 18.454470
248   1  0.5250 26.588506 14.359590 26.644133
249   1  0.5250 26.588479 22.549255  2.075145
250   1  0.5250 26.588477 22.549243 10.264807
251   1  0.5250 26.588474 22.549232 18.454470
252   1  0.5250 26.588471 22.549220 26.644133
253   1  0.5250 26.588444 30.738885  2.075145
254   1  0.5250 26.588442 30.738873 10.264807
255   1  0.5250 26.588439 30.738861 18.454470
256   1  0.5250 26.588436 30.738850 26.644133
257   1  0.5250  8.161891  4.067042  0.027755
258   1  0.5250  8.161889  4.067030  8.217418
259   1  0.5250  8.161886  4.067018 16.407081
260   1  0.5250  8.161883  4.067006 24.596744
261   1  0.5250  8.161857 12.256672  0.027755
262   1  0.5250  8.161854 12.256660  8.217418
263   1  0.5250  8.161851 12.256648 16.407081
264   1  0.5250  8.161848 12.256636 24.596744
265   1  0.5250  8.161822 20.446302  0.027755
266   1  0.5250  8.161819 20.446290  8.217418
267   1  0.5250  8.161816 20.446278 16.407081
268   1  0.5250  8.161813 20.446266 24.596744
269   1  0.5250  8.161787 28.635931  0.027755
270   1  0.5250  8.161784 28.635920  8.217418
271   1  0.5250  8.161781 28.635908 16.407081
272   1  0.5250  8.161779 28.635896 24.596744
273   1  0.5250 16.351530  4.067042  0.027755
274   1  0.5250 16.351527  4.067030  8.217418
275   1  0.5250 16.351525  4.067018 16.407081
276   1  0.5250 16.351522  4.067006 24.596744
277   1  0.5250 16.351495 12.256672  0.027755
278   1  0.5250 16.351493 12.256660  8.217418
279   1  0.5250 16.351490 12.256648 16.407081
280   1  0.5250 16.351487 12.256636 24.596744
281   1  0.5250 16.351460 20.446302  0.027755
282   1  0.5250 16.351458 20.446290  8.217418
283   1  0.5250 16.351455 20.446278 16.407081
284   1  0.5250 16.351452 20.446266 24.596744
285   1  0.5250 16.351426 28.635931  0.027755
286   1  0.5250 16.351423 28.635920  8.217418
287   1  0.5250 16.351420 28.635908 16.407081
288   1  0.5250 16.351417 28.635896 24.596744
289   1  0.5250 24.541169  4.067042  0.027755
290   1  0.5250 24.541166  4.067030  8.217418
291   1  0.5250 24.541164  4.067018 16.407081
292   1  0.5250 24.541161  4.067006 24.596744
293   1  0.5250 24.541134 12.256672  0.027755
294   1  0.5250 24.541131 12.256660  8.217418
295   1  0.5250 24.541129 12.256648 16.407081
296   1  0.5250 24.541126 12.256636 24.596744
297   1  0.5250 24.541099 20.446302  0.027755
298   1  0.5250 24.541097 20.446290  8.217418
299   1  0.5250 24.541094 20.446278 16.407081
300   1  0.5250 24.541091 20.446266 24.596744
301   1  0.5250 24.541064 28.635931  0.027755
302   1  0.5250 24.541062 28.635920  8.217418
303   1  0.5250 24.541059 28.635908 16.407081
304   1  0.5250 24.541056 28.635896 24.596744
305   1  0.5250 32.730808  4.067042  0.027755
306   1  0.5250 32.730805  4.067030  8.217418
307   1  0.5250 32.730802  4.067018 16.407081
308   1  0.5250 32.730800  4.067006 24.596744
309   1  0.5250 32.730773 12.256672  0.027755
310   1  0.5250 32.730770 12.256660  8.217418
311   1  0.5250 32.730767 12.256648 16.407081
312   1  0.5250 32.730765 12.256636 24.596744
313   1  0.5250 32.730738 20.446302  0.027755
314   1  0.5250 32.730735 20.446290  8.217418
315   1  0.5250 32.730733 20.446278 16.407081
316   1  0.5250 32.730730 20.446266 24.596744
317   1  0.5250 32.730703 28.635931  0.027755
318   1  0.5250 32.730700 28.635920  8.217418
319   1  0.5250 32.730698 28.635908 16.407081
320   1  0.5250 32.730695 28.635896 24.596744
321   1  0.5250  0.027711  8.161872  4.067092
322   1  0.5250  0.027709  8.161860 12.256754
323   1  0.5250  0.027706  8.161849 20.446417
324   1  0.5250  0.027703  8.161837 28.636080
325   1  0.5250  0.027677 16.351502  4.067092
326   1  0.5250  0.027674 16.351490 12.256754
327   1  0.5250  0.027671 16.351479 20.446417
328   1  0.5250  0.027668 16.351467 28.636080
329   1  0.5250  0.027642 24.541132  4.067092
330   1  0.5250  0.027639 24.541120 12.256754
331   1  0.5250  0.027636 24.541108 20.446417
332   1  0.5250  0.027634 24.541097 28.636080
333   1  0.5250  0.027607 32.730762  4.067092
334   1  0.5250  0.027604 32.730750 12.256754
335   1  0.5250  0.027601 32.730738 20.446417
336   1  0.5250  0.027599 32.730727 28.636080
337   1  0.5250  8.217350  8.161872  4.067092
338   1  0.5250  8.217348  8.161860 12.256754
339   1  0.5250  8.217345  8.161849 20.446417
340   1  0.5250  8.217342  8.161837 28.636080
341   1  0.5250  8.217315 16.351502  4.067092
342   1  0.5250  8.217313 16.351490 12.256754
343   1  0.5250  8.217310 16.351479 20.446417
344   1  0.5250  8.217307 16.351467 28.636080
345   1  0.5250  8.217281 24.541132  4.067092
346   1  0.5250  8.217278 24.541120 12.256754
347   1  0.5250  8.217275 24.541108 20.446417
348   1  0.5250  8.217272 24.541097 28.636080
349   1  0.5250  8.217246 32.730762  4.067092
350   1  0.5250  8.217243 32.730750 12.256754
351   1  0.5250  8.217240 32.730738 20.446417
352   1  0.5250  8.217238 32.730727 28.636080
353   1  0.5250 16.406989  8.161872  4.067092
354   1  0.5250 16.406986  8.161860 12.256754
355   1  0.5250 16.406984  8.161849 20.446417
356   1  0.5250 16.406981  8.161837 28.636080
357   1  0.5250 16.406954 16.351502  4.067092
358   1  0.5250 16.406951 16.351490 12.256754
359   1  0.5250 16.406949 16.351479 20.446417
360   1  0.5250 16.406946 16.351467 28.636080
361   1  0.5250 16.406919 24.541132  4.067092
362   1  0.5250 16.406917 24.541120 12.256754
363   1  0.5250 16.406914 24.541108 20.446417
364   1  0.5250 16.406911 24.541097 28.636080
365   1  0.5250 16.406884 32.730762  4.067092
366   1  0.5250 16.406882 32.730750 12.256754
367   1  0.5250 16.406879 32.730738 20.446417
368   1  0.5250 16.406876 32.730727 28.636080
369   1  0.5250 24.596628  8.161872  4.067092
370   1  0.5250 24.596625  8.161860 12.256754
371   1  0.5250 24.596622  8.161849 20.446417
372   1  0.5250 24.596620  8.161837 28.636080
373   1  0.5250 24.596593 16.351502  4.067092
374   1  0.5250 24.596590 16.351490 12.256754
375   1  0.5250 24.596588 16.351479 20.446417
376   1  0.5250 24.596585 16.351467 28.636080
377   1  0.5250 24.596558 24.541132  4.067092
378   1  0.5250 24.596555 24.541120 12.256754
379   1  0.5250 24.596553 24.541108 20.446417
380   1  0.5250 24.596550 24.541097 28.636080
381   1  0.5250 24.596523 32.730762  4.067092
382   1  0.5250 24.596521 32.730750 12.256754
383   1  0.5250 24.596518 32.730738 20.446417
384   1  0.5250 24.596515 32.730727 28.636080
385   1  0.5250  4.067080  0.027693  8.161953
386   1  0.5250  4.067077  0.027681 16.351616
387   1  0.5250  4.067075  0.027669 24.541279
388   1  0.5250  4.067072  0.027658 32.730942
389   1  0.5250  4.067045  8.217323  8.161953
390   1  0.5250  4.067042  8.217311 16.351616
391   1  0.5250  4.067040  8.217299 24.541279
392   1  0.5250  4.067037  8.217288 32.730942
393   1  0.5250  4.067010 16.406953  8.161953
394   1  0.5250  4.067008 16.406941 16.351616
395   1  0.5250  4.067005 16.406929 24.541279
396   1  0.5250  4.067002 16.406917 32.730942
397   1  0.5250  4.066975 24.596583  8.161953
398   1  0.5250  4.066973 24.596571 16.351616
399   1  0.5250  4.066970 24.596559 24.541279
400   1  0.5250  4.066967 24.596547 32.730942
401   1  0.5250 12.256719  0.027693  8.161953
402   1  0.5250 12.256716  0.027681 16.351616
403   1  0.5250 12.256713  0.027669 24.541279
404   1  0.5250 12.256711  0.027658 32.730942
405   1  0.5250 12.256684  8.217323  8.161953
406   1  0.5250 12.256681  8.217311 16.351616
407   1  0.5250 12.256678  8.217299 24.541279
408   1  0.5250 12.256676  8.217288 32.730942
409   1  0.5250 12.256649 16.406953  8.161953
410   1  0.5250 12.256646 16.406941 16.351616
411   1  0.5250 12.256644 16.406929 24.541279
412   1  0.5250 12.256641 16.406917 32.730942
413   1  0.5250 12.256614 24.596583  8.161953
414   1  0.5250 12.256611 24.596571 16.351616
415   1  0.5250 12.256609 24.596559 24.541279
416   1  0.5250 12.256606 24.596547 32.730942
417   1  0.5250 20.446358  0.027693  8.161953
418   1  0.5250 20.446355  0.027681 16.351616
419   1  0.5250 20.446352  0.027669 24.541279
420   1  0.5250 20.446349  0.027658 32.730942
421   1  0.5250 20.446323  8.217323  8.161953
422   1  0.5250 20.446320  8.217311 16.351616
423   1  0.5250 20.446317  8.217299 24.541279
424   1  0.5250 20.446315  8.217288 32.730942
425   1  0.5250 20.446288 16.406953  8.161953
426   1  0.5250 20.446285 16.406941 16.351616
427   1  0.5250 20.446282 16.406929 24.541279
428   1  0.5250 20.446280 16.406917 32.730942
429   1  0.5250 20.446253 24.596583  8.161953
430   1  0.5250 20.446250 24.596571 16.351616
431   1  0.5250 20.446248 24.596559 24.541279
432   1  0.5250 20.446245 24.596547 32.730942
433   1  0.5250 28.635996  0.027693  8.161953
434   1  0.5250 28.635994  0.027681 16.351616
435   1  0.5250 28.635991  0.027669 24.541279
436   1  0.5250 28.635988  0.027658 32.730942
437   1  0.5250 28.635962  8.217323  8.161953
438   1  0.5250 28.635959  8.217311 16.351616
439   1  0.5250 28.635956  8.217299 24.541279
440   1  0.5250 28.635953  8.217288 32.730942
441   1  0.5250 28.635927 16.406953  8.161953
442   1  0.5250 28.635924 16.406941 16.351616
443   1  0.5250 28.635921 16.406929 24.541279
444   1  0.5250 28.635919 16.406917 32.730942
445   1  0.5250 28.635892 24.596583  8.161953
446   1  0.5250 28.635889 24.596571 16.351616
447   1  0.5250 28.635886 24.596559 24.541279
448   1  0.5250 28.635884 24.596547 32.730942
449   1  0.5250  6.114444  6.114463  6.114495
450   1  0.5250  6.114442  6.114451 14.304158
451   1  0.5250  6.114439  6.114440 22.493821
452   1  0.5250  6.114436  6.114428 30.683484
453   1  0.5250  6.114410 14.304093  6.114495
454   1  0.5250  6.114407 14.304081 14.304158
455   1  0.5250  6.114404 14.304070 22.493821
456   1  0.5250  6.114401 14.304058 30.683484
457   1  0.5250  6.114375 22.493723  6.114495
458   1  0.5250  6.114372 22.493711 14.304158
459   1  0.5250  6.114369 22.493700 22.493821
460   1  0.5250  6.114367 22.493688 30.683484
461   1  0.5250  6.114340 30.683353  6.114495
462   1  0.5250  6.114337 30.683341 14.304158
463   1  0.5250  6.114334 30.683329 22.493821
464   1  0.5250  6.114332 30.683318 30.683484
465   1  0.5250 14.304083  6.114463  6.114495
466   1  0.5250 14.304080  6.114451 14.304158
467   1  0.5250 14.304078  6.114440 22.493821
468   1  0.5250 14.304075  6.114428 30.683484
469   1  0.5250 14.304048 14.304093  6.114495
470   1  0.5250 14.304046 14.304081 14.304158
471   1  0.5250 14.304043 14.304070 22.493821
472   1  0.5250 14.304040 14.304058 30.683484
473   1  0.5250 14.304013 22.493723  6.114495
474   1  0.5250 14.304011 22.493711 14.304158
475   1  0.5250 14.304008 22.493700 22.493821
476   1  0.5250 14.304005 22.493688 30.683484
477   1  0.5250 14.303979 30.683353  6.114495
478   1  0.5250 14.303976 30.683341 14.304158
479   1  0.5250 14.303973 30.683329 22.493821
480   1  0.5250 14.303970 30.683318 30.683484
481   1  0.5250 22.493722  6.114463  6.114495
482   1  0.5250 22.493719  6.114451 14.304158
483   1  0.5250 22.493717  6.114440 22.493821
484   1  0.5250 22.493714  6.114428 30.683484
485   1  0.5250 22.493687 14.304093  6.114495
486   1  0.5250 22.493684 14.304081 14.304158
487   1  0.5250 22.493682 14.304070 22.493821
488   1  0.5250 22.493679 14.304058 30.683484
489   1  0.5250 22.493652 22.493723  6.114495
490   1  0.5250 22.493650 22.493711 14.304158
491   1  0.5250 22.493647 22.493700 22.493821
492   1  0.5250 22.493644 22.493688 30.683484
493   1  0.5250 22.493617 30.683353  6.114495
494   1  0.5250 22.493615 30.683341 14.304158
495   1  0.5250 22.493612 30.683329 22.493821
496   1  0.5250 22.493609 30.683318 30.683484
497   1  0.5250 30.683361  6.114463  6.114495
498   1  0.5250 30.683358  6.114451 14.304158
499   1  0.5250 30.683355  6.114440 22.493821
500   1  0.5250 30.683353  6.114428 30.683484
501   1  0.5250 30.683326 14.304093  6.114495
502   1  0.5250 30.683323 14.304081 14.304158
503   1  0.5250 30.683320 14.304070 22.493821
504   1  0.5250 30.683318 14.304058 30.683484
505   1  0.5250 30.683291 22.493723  6.114495
506   1  0.5250 30.683288 22.493711 14.304158
507   1  0.5250 30.683286 22.493700 22.493821
508   1  0.5250 30.683283 22.493688 30.683484
509   1  0.5250 30.683256 30.683353  6.114495
510   1  0.5250 30.683253 30.683341 14.304158
511   1  0.5250 30.683251 30.683329 22.493821
512   1  0.5250 30.683248 30.683318 30.683484
513   2  1.3600  1.023736  1.023695  1.023664
514   2  1.3600  1.023733  1.023683  9.213326
515   2  1.3600  1.023731  1.023671 17.402989
516   2  1.3600  1.023728  1.023659 25.592652
517   2  1.3600  1.023701  9.213325  1.023664
518   2  1.3600  1.023699  9.213313  9.213326
519   2  1.3600  1.023696  9.213301 17.402989
520   2  1.3600  1.023693  9.213289 25.592652
521   2  1.3600  1.023666 17.402954  1.023664
522   2  1.3600  1.023664 17.402943  9.213326
523   2  1.3600  1.023661 17.402931 17.402989
524   2  1.3600  1.023658 17.402919 25.592652
525   2  1.3600  1.023632 25.592584  1.023664
526   2  1.3600  1.023629 25.592573  9.213326
527   2  1.3600  1.023626 25.592561 17.402989
528   2  1.3600  1.023623 25.592549 25.592652
529   2  1.3600  9.213375  1.023695  1.023664
530   2  1.3600  9.213372  1.023683  9.213326
531   2  1.3600  9.213370  1.023671 17.402989
532   2  1.3600  9.213367  1.023659 25.592652
533   2  1.3600  9.213340  9.213325  1.023664
534   2  1.3600  9.213337  9.213313  9.213326
535   2  1.3600  9.213335  9.213301 17.402989
536   2  1.3600  9.213332  9.213289 25.592652
537   2  1.3600  9.213305 17.402954  1.023664
538   2  1.3600  9.213303 17.402943  9.213326
539   2  1.3600  9.213300 17.402931 17.402989
540   2  1.3600  9.213297 17.402919 25.592652
541   2  1.3600  9.213270 25.592584  1.023664
542   2  1.3600  9.213268 25.592573  9.213326
543   2  1.3600  9.213265 25.592561 17.402989
544   2  1.3600  9.213262 25.592549 25.592652
545   2  1.3600 17.403014  1.023695  1.023664
546   2  1.3600 17.403011  1.023683  9.213326
547   2  1.3600 17.403008  1.023671 17.402989
548   2  1.3600 17.403006  1.023659 25.592652
549   2  1.3600 17.402979  9.213325  1.023664
550   2  1.3600 17.402976  9.213313  9.213326
551   2  1.3600 17.402973  9.213301 17.402989
552   2  1.3600 17.402971  9.213289 25.592652
553   2  1.3600 17.402944 17.402954  1.023664
554   2  1.3600 17.402941 17.402943  9.213326
555   2  1.3600 17.402939 17.402931 17.402989
556   2  1.3600 17.402936 17.402919 25.592652
557   2  1.3600 17.402909 25.592584  1.023664
558   2  1.3600 17.402906 25.592573  9.213326
559   2  1.3600 17.402904 25.592561 17.402989
560   2  1.3600 17.402901 25.592549 25.592652
561   2  1.3600 25.592653  1.023695  1.023664
562   2  1.3600 25.592650  1.023683  9.213326
563   2  1.3600 25.592647  1.023671 17.402989
564   2  1.3600 25.592644  1.023659 25.592652
565   2  1.3600 25.592618  9.213325  1.023664
566   2  1.3600 25.592615  9.213313  9.213326
567   2  1.3600 25.592612  9.213301 17.402989
568   2  1.3600 25.592610  9.213289 25.592652
569   2  1.3600 25.592583 17.402954  1.023664
570   2  1.3600 25.592580 17.402943  9.213326
571   2  1.3600 25.592577 17.402931 17.402989
572   2  1.3600 25.592575 17.402919 25.592652
573   2  1.3600 25.592548 25.592584  1.023664
574   2  1.3600 25.592545 25.592573  9.213326
575   2  1.3600 25.592543 25.592561 17.402989
576   2  1.3600 25.592540 25.592549 25.592652
577   2  1.3600  3.071106  7.165931  5.118520
578   2  1.3600  3.071103  7.165919 13.308182
579   2  1.3600  3.071100  7.165907 21.497845
580   2  1.3600  3.071097  7.165896 29.687508
581   2  1.3600  3.071071 15.355561  5.118520
582   2  1.3600  3.071068 15.355549 13.308182
583   2  1.3600  3.071065 15.355537 21.497845
584   2  1.3600  3.071063 15.355526 29.687508
585   2  1.3600  3.071036 23.545191  5.118520
586   2  1.3600  3.071033 23.545179 13.308182
587   2  1.3600  3.071030 23.545167 21.497845
588   2  1.3600  3.071028 23.545155 29.687508
589   2  1.3600  3.071001 31.734821  5.118520
590   2  1.3600  3.070998 31.734809 13.308182
591   2  1.3600  3.070996 31.734797 21.497845
592   2  1.3600  3.070993 31.734785 29.687508
593   2  1.3600 11.260744  7.165931  5.118520
594   2  1.3600 11.260742  7.165919 13.308182
595   2  1.3600 11.260739  7.165907 21.497845
596   2  1.3600 11.260736  7.165896 29.687508
597   2  1.3600 11.260709 15.355561  5.118520
598   2  1.3600 11.260707 15.355549 13.308182
599   2  1.3600 11.260704 15.355537 21.497845
600   2  1.3600 11.260701 15.355526 29.687508
601   2  1.3600 11.260675 23.545191  5.118520
602   2  1.3600 11.260672 23.545179 13.308182
603   2  1.3600 11.260669 23.545167 21.497845
604   2  1.3600 11.260666 23.545155 29.687508
605   2  1.3600 11.260640 31.734821  5.118520
606   2  1.3600 11.260637 31.734809 13.308182
607   2  1.3600 11.260634 31.734797 21.497845
608   2  1.3600 11.260632 31.734785 29.687508
609   2  1.3600 19.450383  7.165931  5.118520
610   2  1.3600 19.450380  7.165919 13.308182
611   2  1.3600 19.450378  7.165907 21.497845
612   2  1.3600 19.450375  7.165896 29.687508
613   2  1.3600 19.450348 15.355561  5.118520
614   2  1.3600 19.450346 15.355549 13.308182
615   2  1.3600 19.450343 15.355537 21.497845
616   2  1.3600 19.450340 15.355526 29.687508
617   2  1.3600 19.450313 23.545191  5.118520
618   2  1.3600 19.450311 23.545179 13.308182
619   2  1.3600 19.450308 23.545167 21.497845
620   2  1.3600 19.450305 23.545155 29.687508
621   2  1.3600 19.450279 31.734821  5.118520
622   2  1.3600 19.450276 31.734809 13.308182
623   2  1.3600 19.450273 31.734797 21.497845
624   2  1.3600 19.450270 31.734785 29.687508
625   2  1.3600 27.640022  7.165931  5.118520
626   2  1.3600 27.640019  7.165919 13.308182
627   2  1.3600 27.640016  7.165907 21.497845
628   2  1.3600 27.640014  7.165896 29.687508
629   2  1.3600 27.639987 15.355561  5.118520
630   2  1.3600 27.639984 15.355549 13.308182
631   2  1.3600 27.639982 15.355537 21.497845
632   2  1.3600 27.639979 15.355526 29.687508
633   2  1.3600 27.639952 23.545191  5.118520
634   2  1.3600 27.639949 23.545179 13.308182
635   2  1.3600 27.639947 23.545167 21.497845
636   2  1.3600 27.639944 23.545155 29.687508
637   2  1.3600 27.639917 31.734821  5.118520
638   2  1.3600 27.639915 31.734809 13.308182
639   2  1.3600 27.639912 31.734797 21.497845
640   2  1.3600 27.639909 31.734785 29.687508
641   2  1.3600  5.118526  3.071084  7.165927
642   2  1.3600  5.118523  3.071073 15.355590
643   2  1.3600  5.118520  3.071061 23.545252
644   2  1.3600  5.118517  3.071049 31.734915
645   2  1.3600  5.118491 11.260714  7.165927
646   2  1.3600  5.118488 11.260703 15.355590