Generated by pymatgen.io.lammps.data.LammpsData

3240  atoms

   4  atom types

0.000000 33.051444  xlo xhi
0.000000 34.443983  ylo yhi
0.000000 45.922397  zlo zhi
-9.039970 -8.819329 -18.572139  xy xz yz

Masses

1    6.94100
2  238.02891
3   95.94000
4   15.99940

Atoms

1     1  0.5250   1.682490  -0.076668  3.249132
2     1  0.5250   0.212601  -3.172025 10.902865
3     1  0.5250  -1.257287  -6.267381 18.556598
4     1  0.5250  -2.727175  -9.362738 26.210331
5     1  0.5250  -4.197063 -12.458095 33.864064
6     1  0.5250  -5.666952 -15.553451 41.517797
7     1  0.5250   0.175828   5.663995  3.249132
8     1  0.5250  -1.294060   2.568639 10.902865
9     1  0.5250  -2.763949  -0.526718 18.556598
10    1  0.5250  -4.233837  -3.622074 26.210331
11    1  0.5250  -5.703725  -6.717431 33.864064
12    1  0.5250  -7.173613  -9.812787 41.517797
13    1  0.5250  -1.330834  11.404659  3.249132
14    1  0.5250  -2.800722   8.309303 10.902865
15    1  0.5250  -4.270610   5.213946 18.556598
16    1  0.5250  -5.740499   2.118590 26.210331
17    1  0.5250  -7.210387  -0.976767 33.864064
18    1  0.5250  -8.680275  -4.072123 41.517797
19    1  0.5250  -2.837496  17.145323  3.249132
20    1  0.5250  -4.307384  14.049967 10.902865
21    1  0.5250  -5.777272  10.954610 18.556598
22    1  0.5250  -7.247160   7.859253 26.210331
23    1  0.5250  -8.717049   4.763897 33.864064
24    1  0.5250 -10.186937   1.668540 41.517797
25    1  0.5250  -4.344157  22.885987  3.249132
26    1  0.5250  -5.814046  19.790630 10.902865
27    1  0.5250  -7.283934  16.695274 18.556598
28    1  0.5250  -8.753822  13.599917 26.210331
29    1  0.5250 -10.223710  10.504561 33.864064
30    1  0.5250 -11.693599   7.409204 41.517797
31    1  0.5250  -5.850819  28.626651  3.249132
32    1  0.5250  -7.320707  25.531294 10.902865
33    1  0.5250  -8.790596  22.435938 18.556598
34    1  0.5250 -10.260484  19.340581 26.210331
35    1  0.5250 -11.730372  16.245225 33.864064
36    1  0.5250 -13.200260  13.149868 41.517797
37    1  0.5250   7.191064  -0.076668  3.249132
38    1  0.5250   5.721175  -3.172025 10.902865
39    1  0.5250   4.251287  -6.267381 18.556598
40    1  0.5250   2.781399  -9.362738 26.210331
41    1  0.5250   1.311511 -12.458095 33.864064
42    1  0.5250  -0.158378 -15.553451 41.517797
43    1  0.5250   5.684402   5.663995  3.249132
44    1  0.5250   4.214514   2.568639 10.902865
45    1  0.5250   2.744625  -0.526718 18.556598
46    1  0.5250   1.274737  -3.622074 26.210331
47    1  0.5250  -0.195151  -6.717431 33.864064
48    1  0.5250  -1.665039  -9.812787 41.517797
49    1  0.5250   4.177740  11.404659  3.249132
50    1  0.5250   2.707852   8.309303 10.902865
51    1  0.5250   1.237964   5.213946 18.556598
52    1  0.5250  -0.231925   2.118590 26.210331
53    1  0.5250  -1.701813  -0.976767 33.864064
54    1  0.5250  -3.171701  -4.072123 41.517797
55    1  0.5250   2.671078  17.145323  3.249132
56    1  0.5250   1.201190  14.049967 10.902865
57    1  0.5250  -0.268698  10.954610 18.556598
58    1  0.5250  -1.738586   7.859253 26.210331
59    1  0.5250  -3.208475   4.763897 33.864064
60    1  0.5250  -4.678363   1.668540 41.517797
61    1  0.5250   1.164417  22.885987  3.249132
62    1  0.5250  -0.305472  19.790630 10.902865
63    1  0.5250  -1.775360  16.695274 18.556598
64    1  0.5250  -3.245248  13.599917 26.210331
65    1  0.5250  -4.715136  10.504561 33.864064
66    1  0.5250  -6.185025   7.409204 41.517797
67    1  0.5250  -0.342245  28.626651  3.249132
68    1  0.5250  -1.812133  25.531294 10.902865
69    1  0.5250  -3.282022  22.435938 18.556598
70    1  0.5250  -4.751910  19.340581 26.210331
71    1  0.5250  -6.221798  16.245225 33.864064
72    1  0.5250  -7.691686  13.149868 41.517797
73    1  0.5250  12.699638  -0.076668  3.249132
74    1  0.5250  11.229749  -3.172025 10.902865
75    1  0.5250   9.759861  -6.267381 18.556598
76    1  0.5250   8.289973  -9.362738 26.210331
77    1  0.5250   6.820085 -12.458095 33.864064
78    1  0.5250   5.350196 -15.553451 41.517797
79    1  0.5250  11.192976   5.663995  3.249132
80    1  0.5250   9.723088   2.568639 10.902865
81    1  0.5250   8.253199  -0.526718 18.556598
82    1  0.5250   6.783311  -3.622074 26.210331
83    1  0.5250   5.313423  -6.717431 33.864064
84    1  0.5250   3.843535  -9.812787 41.517797
85    1  0.5250   9.686314  11.404659  3.249132
86    1  0.5250   8.216426   8.309303 10.902865
87    1  0.5250   6.746538   5.213946 18.556598
88    1  0.5250   5.276649   2.118590 26.210331
89    1  0.5250   3.806761  -0.976767 33.864064
90    1  0.5250   2.336873  -4.072123 41.517797
91    1  0.5250   8.179652  17.145323  3.249132
92    1  0.5250   6.709764  14.049967 10.902865
93    1  0.5250   5.239876  10.954610 18.556598
94    1  0.5250   3.769988   7.859253 26.210331
95    1  0.5250   2.300099   4.763897 33.864064
96    1  0.5250   0.830211   1.668540 41.517797
97    1  0.5250   6.672991  22.885987  3.249132
98    1  0.5250   5.203102  19.790630 10.902865
99    1  0.5250   3.733214  16.695274 18.556598
100   1  0.5250   2.263326  13.599917 26.210331
101   1  0.5250   0.793438  10.504561 33.864064
102   1  0.5250  -0.676451   7.409204 41.517797
103   1  0.5250   5.166329  28.626651  3.249132
104   1  0.5250   3.696441  25.531294 10.902865
105   1  0.5250   2.226552  22.435938 18.556598
106   1  0.5250   0.756664  19.340581 26.210331
107   1  0.5250  -0.713224  16.245225 33.864064
108   1  0.5250  -2.183112  13.149868 41.517797
109   1  0.5250  18.208212  -0.076668  3.249132
110   1  0.5250  16.738323  -3.172025 10.902865
111   1  0.5250  15.268435  -6.267381 18.556598
112   1  0.5250  13.798547  -9.362738 26.210331
113   1  0.5250  12.328659 -12.458095 33.864064
114   1  0.5250  10.858770 -15.553451 41.517797
115   1  0.5250  16.701550   5.663995  3.249132
116   1  0.5250  15.231662   2.568639 10.902865
117   1  0.5250  13.761773  -0.526718 18.556598
118   1  0.5250  12.291885  -3.622074 26.210331
119   1  0.5250  10.821997  -6.717431 33.864064
120   1  0.5250   9.352109  -9.812787 41.517797
121   1  0.5250  15.194888  11.404659  3.249132
122   1  0.5250  13.725000   8.309303 10.902865
123   1  0.5250  12.255112   5.213946 18.556598
124   1  0.5250  10.785223   2.118590 26.210331
125   1  0.5250   9.315335  -0.976767 33.864064
126   1  0.5250   7.845447  -4.072123 41.517797
127   1  0.5250  13.688226  17.145323  3.249132
128   1  0.5250  12.218338  14.049967 10.902865
129   1  0.5250  10.748450  10.954610 18.556598
130   1  0.5250   9.278562   7.859253 26.210331
131   1  0.5250   7.808673   4.763897 33.864064
132   1  0.5250   6.338785   1.668540 41.517797
133   1  0.5250  12.181565  22.885987  3.249132
134   1  0.5250  10.711676  19.790630 10.902865
135   1  0.5250   9.241788  16.695274 18.556598
136   1  0.5250   7.771900  13.599917 26.210331
137   1  0.5250   6.302012  10.504561 33.864064
138   1  0.5250   4.832123   7.409204 41.517797
139   1  0.5250  10.674903  28.626651  3.249132
140   1  0.5250   9.205015  25.531294 10.902865
141   1  0.5250   7.735126  22.435938 18.556598
142   1  0.5250   6.265238  19.340581 26.210331
143   1  0.5250   4.795350  16.245225 33.864064
144   1  0.5250   3.325462  13.149868 41.517797
145   1  0.5250  23.716786  -0.076668  3.249132
146   1  0.5250  22.246897  -3.172025 10.902865
147   1  0.5250  20.777009  -6.267381 18.556598
148   1  0.5250  19.307121  -9.362738 26.210331
149   1  0.5250  17.837233 -12.458095 33.864064
150   1  0.5250  16.367344 -15.553451 41.517797
151   1  0.5250  22.210124   5.663995  3.249132
152   1  0.5250  20.740236   2.568639 10.902865
153   1  0.5250  19.270347  -0.526718 18.556598
154   1  0.5250  17.800459  -3.622074 26.210331
155   1  0.5250  16.330571  -6.717431 33.864064
156   1  0.5250  14.860683  -9.812787 41.517797
157   1  0.5250  20.703462  11.404659  3.249132
158   1  0.5250  19.233574   8.309303 10.902865
159   1  0.5250  17.763686   5.213946 18.556598
160   1  0.5250  16.293797   2.118590 26.210331
161   1  0.5250  14.823909  -0.976767 33.864064
162   1  0.5250  13.354021  -4.072123 41.517797
163   1  0.5250  19.196800  17.145323  3.249132
164   1  0.5250  17.726912  14.049967 10.902865
165   1  0.5250  16.257024  10.954610 18.556598
166   1  0.5250  14.787136   7.859253 26.210331
167   1  0.5250  13.317247   4.763897 33.864064
168   1  0.5250  11.847359   1.668540 41.517797
169   1  0.5250  17.690139  22.885987  3.249132
170   1  0.5250  16.220250  19.790630 10.902865
171   1  0.5250  14.750362  16.695274 18.556598
172   1  0.5250  13.280474  13.599917 26.210331
173   1  0.5250  11.810586  10.504561 33.864064
174   1  0.5250  10.340697   7.409204 41.517797
175   1  0.5250  16.183477  28.626651  3.249132
176   1  0.5250  14.713589  25.531294 10.902865
177   1  0.5250  13.243701  22.435938 18.556598
178   1  0.5250  11.773812  19.340581 26.210331
179   1  0.5250  10.303924  16.245225 33.864064
180   1  0.5250   8.834036  13.149868 41.517797
181   1  0.5250  29.225360  -0.076668  3.249132
182   1  0.5250  27.755471  -3.172025 10.902865
183   1  0.5250  26.285583  -6.267381 18.556598
184   1  0.5250  24.815695  -9.362738 26.210331
185   1  0.5250  23.345807 -12.458095 33.864064
186   1  0.5250  21.875918 -15.553451 41.517797
187   1  0.5250  27.718698   5.663995  3.249132
188   1  0.5250  26.248810   2.568639 10.902865
189   1  0.5250  24.778921  -0.526718 18.556598
190   1  0.5250  23.309033  -3.622074 26.210331
191   1  0.5250  21.839145  -6.717431 33.864064
192   1  0.5250  20.369257  -9.812787 41.517797
193   1  0.5250  26.212036  11.404659  3.249132
194   1  0.5250  24.742148   8.309303 10.902865
195   1  0.5250  23.272260   5.213946 18.556598
196   1  0.5250  21.802371   2.118590 26.210331
197   1  0.5250  20.332483  -0.976767 33.864064
198   1  0.5250  18.862595  -4.072123 41.517797
199   1  0.5250  24.705374  17.145323  3.249132
200   1  0.5250  23.235486  14.049967 10.902865
201   1  0.5250  21.765598  10.954610 18.556598
202   1  0.5250  20.295710   7.859253 26.210331
203   1  0.5250  18.825821   4.763897 33.864064
204   1  0.5250  17.355933   1.668540 41.517797
205   1  0.5250  23.198713  22.885987  3.249132
206   1  0.5250  21.728825  19.790630 10.902865
207   1  0.5250  20.258936  16.695274 18.556598
208   1  0.5250  18.789048  13.599917 26.210331
209   1  0.5250  17.319160  10.504561 33.864064
210   1  0.5250  15.849272   7.409204 41.517797
211   1  0.5250  21.692051  28.626651  3.249132
212   1  0.5250  20.222163  25.531294 10.902865
213   1  0.5250  18.752275  22.435938 18.556598
214   1  0.5250  17.282386  19.340581 26.210331
215   1  0.5250  15.812498  16.245225 33.864064
216   1  0.5250  14.342610  13.149868 41.517797
217   1  0.5250   0.849535   2.721976  4.404601
218   1  0.5250  -0.620354  -0.373381 12.058334
219   1  0.5250  -2.090242  -3.468737 19.712067
220   1  0.5250  -3.560130  -6.564094 27.365800
221   1  0.5250  -5.030018  -9.659450 35.019532
222   1  0.5250  -6.499907 -12.754807 42.673265
223   1  0.5250  -0.657127   8.462640  4.404601
224   1  0.5250  -2.127015   5.367283 12.058334
225   1  0.5250  -3.596904   2.271927 19.712067
226   1  0.5250  -5.066792  -0.823430 27.365800
227   1  0.5250  -6.536680  -3.918786 35.019532
228   1  0.5250  -8.006568  -7.014143 42.673265
229   1  0.5250  -2.163789  14.203303  4.404601
230   1  0.5250  -3.633677  11.107947 12.058334
231   1  0.5250  -5.103565   8.012590 19.712067
232   1  0.5250  -6.573454   4.917234 27.365800
233   1  0.5250  -8.043342   1.821877 35.019532
234   1  0.5250  -9.513230  -1.273479 42.673265
235   1  0.5250  -3.670451  19.943967  4.404601
236   1  0.5250  -5.140339  16.848611 12.058334
237   1  0.5250  -6.610227  13.753254 19.712067
238   1  0.5250  -8.080115  10.657898 27.365800
239   1  0.5250  -9.550004   7.562541 35.019532
240   1  0.5250 -11.019892   4.467185 42.673265
241   1  0.5250  -5.177112  25.684631  4.404601
242   1  0.5250  -6.647001  22.589275 12.058334
243   1  0.5250  -8.116889  19.493918 19.712067
244   1  0.5250  -9.586777  16.398562 27.365800
245   1  0.5250 -11.056665  13.303205 35.019532
246   1  0.5250 -12.526554  10.207849 42.673265
247   1  0.5250  -6.683774  31.425295  4.404601
248   1  0.5250  -8.153662  28.329938 12.058334
249   1  0.5250  -9.623551  25.234582 19.712067
250   1  0.5250 -11.093439  22.139225 27.365800
251   1  0.5250 -12.563327  19.043869 35.019532
252   1  0.5250 -14.033215  15.948512 42.673265
253   1  0.5250   6.358109   2.721976  4.404601
254   1  0.5250   4.888220  -0.373381 12.058334
255   1  0.5250   3.418332  -3.468737 19.712067
256   1  0.5250   1.948444  -6.564094 27.365800
257   1  0.5250   0.478556  -9.659450 35.019532
258   1  0.5250  -0.991333 -12.754807 42.673265
259   1  0.5250   4.851447   8.462640  4.404601
260   1  0.5250   3.381559   5.367283 12.058334
261   1  0.5250   1.911670   2.271927 19.712067
262   1  0.5250   0.441782  -0.823430 27.365800
263   1  0.5250  -1.028106  -3.918786 35.019532
264   1  0.5250  -2.497994  -7.014143 42.673265
265   1  0.5250   3.344785  14.203303  4.404601
266   1  0.5250   1.874897  11.107947 12.058334
267   1  0.5250   0.405009   8.012590 19.712067
268   1  0.5250  -1.064880   4.917234 27.365800
269   1  0.5250  -2.534768   1.821877 35.019532
270   1  0.5250  -4.004656  -1.273479 42.673265
271   1  0.5250   1.838123  19.943967  4.404601
272   1  0.5250   0.368235  16.848611 12.058334
273   1  0.5250  -1.101653  13.753254 19.712067
274   1  0.5250  -2.571541  10.657898 27.365800
275   1  0.5250  -4.041430   7.562541 35.019532
276   1  0.5250  -5.511318   4.467185 42.673265
277   1  0.5250   0.331462  25.684631  4.404601
278   1  0.5250  -1.138427  22.589275 12.058334
279   1  0.5250  -2.608315  19.493918 19.712067
280   1  0.5250  -4.078203  16.398562 27.365800
281   1  0.5250  -5.548091  13.303205 35.019532
282   1  0.5250  -7.017980  10.207849 42.673265
283   1  0.5250  -1.175200  31.425295  4.404601
284   1  0.5250  -2.645088  28.329938 12.058334
285   1  0.5250  -4.114977  25.234582 19.712067
286   1  0.5250  -5.584865  22.139225 27.365800
287   1  0.5250  -7.054753  19.043869 35.019532
288   1  0.5250  -8.524641  15.948512 42.673265
289   1  0.5250  11.866683   2.721976  4.404601
290   1  0.5250  10.396794  -0.373381 12.058334
291   1  0.5250   8.926906  -3.468737 19.712067
292   1  0.5250   7.457018  -6.564094 27.365800
293   1  0.5250   5.987130  -9.659450 35.019532
294   1  0.5250   4.517241 -12.754807 42.673265
295   1  0.5250  10.360021   8.462640  4.404601
296   1  0.5250   8.890133   5.367283 12.058334
297   1  0.5250   7.420244   2.271927 19.712067
298   1  0.5250   5.950356  -0.823430 27.365800
299   1  0.5250   4.480468  -3.918786 35.019532
300   1  0.5250   3.010580  -7.014143 42.673265
301   1  0.5250   8.853359  14.203303  4.404601
302   1  0.5250   7.383471  11.107947 12.058334
303   1  0.5250   5.913583   8.012590 19.712067
304   1  0.5250   4.443694   4.917234 27.365800
305   1  0.5250   2.973806   1.821877 35.019532
306   1  0.5250   1.503918  -1.273479 42.673265
307   1  0.5250   7.346697  19.943967  4.404601
308   1  0.5250   5.876809  16.848611 12.058334
309   1  0.5250   4.406921  13.753254 19.712067
310   1  0.5250   2.937033  10.657898 27.365800
311   1  0.5250   1.467144   7.562541 35.019532
312   1  0.5250  -0.002744   4.467185 42.673265
313   1  0.5250   5.840036  25.684631  4.404601
314   1  0.5250   4.370147  22.589275 12.058334
315   1  0.5250   2.900259  19.493918 19.712067
316   1  0.5250   1.430371  16.398562 27.365800
317   1  0.5250  -0.039517  13.303205 35.019532
318   1  0.5250  -1.509406  10.207849 42.673265
319   1  0.5250   4.333374  31.425295  4.404601
320   1  0.5250   2.863486  28.329938 12.058334
321   1  0.5250   1.393597  25.234582 19.712067
322   1  0.5250  -0.076291  22.139225 27.365800
323   1  0.5250  -1.546179  19.043869 35.019532
324   1  0.5250  -3.016067  15.948512 42.673265
325   1  0.5250  17.375257   2.721976  4.404601
326   1  0.5250  15.905368  -0.373381 12.058334
327   1  0.5250  14.435480  -3.468737 19.712067
328   1  0.5250  12.965592  -6.564094 27.365800
329   1  0.5250  11.495704  -9.659450 35.019532
330   1  0.5250  10.025815 -12.754807 42.673265
331   1  0.5250  15.868595   8.462640  4.404601
332   1  0.5250  14.398707   5.367283 12.058334
333   1  0.5250  12.928818   2.271927 19.712067
334   1  0.5250  11.458930  -0.823430 27.365800
335   1  0.5250   9.989042  -3.918786 35.019532
336   1  0.5250   8.519154  -7.014143 42.673265
337   1  0.5250  14.361933  14.203303  4.404601
338   1  0.5250  12.892045  11.107947 12.058334
339   1  0.5250  11.422157   8.012590 19.712067
340   1  0.5250   9.952268   4.917234 27.365800
341   1  0.5250   8.482380   1.821877 35.019532
342   1  0.5250   7.012492  -1.273479 42.673265
343   1  0.5250  12.855271  19.943967  4.404601
344   1  0.5250  11.385383  16.848611 12.058334
345   1  0.5250   9.915495  13.753254 19.712067
346   1  0.5250   8.445607  10.657898 27.365800
347   1  0.5250   6.975718   7.562541 35.019532
348   1  0.5250   5.505830   4.467185 42.673265
349   1  0.5250  11.348610  25.684631  4.404601
350   1  0.5250   9.878721  22.589275 12.058334
351   1  0.5250   8.408833  19.493918 19.712067
352   1  0.5250   6.938945  16.398562 27.365800
353   1  0.5250   5.469057  13.303205 35.019532
354   1  0.5250   3.999168  10.207849 42.673265
355   1  0.5250   9.841948  31.425295  4.404601
356   1  0.5250   8.372060  28.329938 12.058334
357   1  0.5250   6.902172  25.234582 19.712067
358   1  0.5250   5.432283  22.139225 27.365800
359   1  0.5250   3.962395  19.043869 35.019532
360   1  0.5250   2.492507  15.948512 42.673265
361   1  0.5250  22.883831   2.721976  4.404601
362   1  0.5250  21.413942  -0.373381 12.058334
363   1  0.5250  19.944054  -3.468737 19.712067
364   1  0.5250  18.474166  -6.564094 27.365800
365   1  0.5250  17.004278  -9.659450 35.019532
366   1  0.5250  15.534389 -12.754807 42.673265
367   1  0.5250  21.377169   8.462640  4.404601
368   1  0.5250  19.907281   5.367283 12.058334
369   1  0.5250  18.437392   2.271927 19.712067
370   1  0.5250  16.967504  -0.823430 27.365800
371   1  0.5250  15.497616  -3.918786 35.019532
372   1  0.5250  14.027728  -7.014143 42.673265
373   1  0.5250  19.870507  14.203303  4.404601
374   1  0.5250  18.400619  11.107947 12.058334
375   1  0.5250  16.930731   8.012590 19.712067
376   1  0.5250  15.460842   4.917234 27.365800
377   1  0.5250  13.990954   1.821877 35.019532
378   1  0.5250  12.521066  -1.273479 42.673265
379   1  0.5250  18.363845  19.943967  4.404601
380   1  0.5250  16.893957  16.848611 12.058334
381   1  0.5250  15.424069  13.753254 19.712067
382   1  0.5250  13.954181  10.657898 27.365800
383   1  0.5250  12.484292   7.562541 35.019532
384   1  0.5250  11.014404   4.467185 42.673265
385   1  0.5250  16.857184  25.684631  4.404601
386   1  0.5250  15.387296  22.589275 12.058334
387   1  0.5250  13.917407  19.493918 19.712067
388   1  0.5250  12.447519  16.398562 27.365800
389   1  0.5250  10.977631  13.303205 35.019532
390   1  0.5250   9.507743  10.207849 42.673265
391   1  0.5250  15.350522  31.425295  4.404601
392   1  0.5250  13.880634  28.329938 12.058334
393   1  0.5250  12.410746  25.234582 19.712067
394   1  0.5250  10.940857  22.139225 27.365800
395   1  0.5250   9.470969  19.043869 35.019532
396   1  0.5250   8.001081  15.948512 42.673265
397   1  0.5250  28.392405   2.721976  4.404601
398   1  0.5250  26.922516  -0.373381 12.058334
399   1  0.5250  25.452628  -3.468737 19.712067
400   1  0.5250  23.982740  -6.564094 27.365800
401   1  0.5250  22.512852  -9.659450 35.019532
402   1  0.5250  21.042963 -12.754807 42.673265
403   1  0.5250  26.885743   8.462640  4.404601
404   1  0.5250  25.415855   5.367283 12.058334
405   1  0.5250  23.945966   2.271927 19.712067
406   1  0.5250  22.476078  -0.823430 27.365800
407   1  0.5250  21.006190  -3.918786 35.019532
408   1  0.5250  19.536302  -7.014143 42.673265
409   1  0.5250  25.379081  14.203303  4.404601
410   1  0.5250  23.909193  11.107947 12.058334
411   1  0.5250  22.439305   8.012590 19.712067
412   1  0.5250  20.969416   4.917234 27.365800
413   1  0.5250  19.499528   1.821877 35.019532
414   1  0.5250  18.029640  -1.273479 42.673265
415   1  0.5250  23.872420  19.943967  4.404601
416   1  0.5250  22.402531  16.848611 12.058334
417   1  0.5250  20.932643  13.753254 19.712067
418   1  0.5250  19.462755  10.657898 27.365800
419   1  0.5250  17.992867   7.562541 35.019532
420   1  0.5250  16.522978   4.467185 42.673265
421   1  0.5250  22.365758  25.684631  4.404601
422   1  0.5250  20.895870  22.589275 12.058334
423   1  0.5250  19.425981  19.493918 19.712067
424   1  0.5250  17.956093  16.398562 27.365800
425   1  0.5250  16.486205  13.303205 35.019532
426   1  0.5250  15.016317  10.207849 42.673265
427   1  0.5250  20.859096  31.425295  4.404601
428   1  0.5250  19.389208  28.329938 12.058334
429   1  0.5250  17.919320  25.234582 19.712067
430   1  0.5250  16.449431  22.139225 27.365800
431   1  0.5250  14.979543  19.043869 35.019532
432   1  0.5250  13.509655  15.948512 42.673265
433   2  0.0000   0.000000   0.000000  0.000000
434   2  0.0000 -10.509859  31.348626  7.653733
435   2  0.0000 -11.979747  28.253270 15.307466
436   2  0.0000  19.601809  25.157913 22.961199
437   2  0.0000 -14.919523  22.062557 30.614932
438   2  0.0000 -16.389412  18.967200 38.268665
439   2  0.0000  -1.506662   5.740664 -0.000000
440   2  0.0000  -2.976550   2.645307  7.653733
441   2  0.0000  -4.446438  -0.450049 15.307466
442   2  0.0000  -5.916326  -3.545406 22.961199
443   2  0.0000  -7.386215  -6.640762 30.614932
444   2  0.0000  -8.856103  -9.736119 38.268665
445   2  0.0000  -3.013323  11.481328 -0.000000
446   2  0.0000  -4.483212   8.385971  7.653733
447   2  0.0000  -5.953100   5.290615 15.307466
448   2  0.0000  -7.422988   2.195258 22.961199
449   2  0.0000  -8.892876  -0.900098 30.614932
450   2  0.0000 -10.362765  -3.995455 38.268665
451   2  0.0000  -4.519985  17.221992 -0.000000
452   2  0.0000  -5.989873  14.126635  7.653733
453   2  0.0000  -7.459762  11.031278 15.307466
454   2  0.0000  -8.929650   7.935922 22.961199
455   2  0.0000 -10.399538   4.840565 30.614932
456   2  0.0000 -11.869426   1.745209 38.268665
457   2  0.0000  -6.026647  22.962655 -0.000000
458   2  0.0000  -7.496535  19.867299  7.653733
459   2  0.0000  -8.966423  16.771942 15.307466
460   2  0.0000 -10.436312  13.676586 22.961199
461   2  0.0000 -11.906200  10.581229 30.614932
462   2  0.0000 -13.376088   7.485873 38.268665
463   2  0.0000  -7.533309  28.703319 -0.000000
464   2  0.0000  -9.003197  25.607963  7.653733
465   2  0.0000 -10.473085  22.512606 15.307466
466   2  0.0000 -11.942973  19.417250 22.961199
467   2  0.0000 -13.412862  16.321893 30.614932
468   2  0.0000 -14.882750  13.226537 38.268665
469   2  0.0000 -12.350726  15.871844 45.922397
470   2  0.0000  -5.001285  31.348626  7.653733
471   2  0.0000  -6.471173  28.253270 15.307466
472   2  0.0000   1.098909  -9.286070 22.961199
473   2  0.0000  -9.410949  22.062557 30.614932
474   2  0.0000  -1.840867 -15.476783 38.268665
475   2  0.0000  -4.817417 -12.831475 45.922397
476   2  0.0000   2.532024   2.645307  7.653733
477   2  0.0000   1.062136  -0.450049 15.307466
478   2  0.0000  -0.407752  -3.545406 22.961199
479   2  0.0000  -1.877641  -6.640762 30.614932
480   2  0.0000  -3.347529  -9.736119 38.268665
481   2  0.0000   2.495251  11.481328  0.000000
482   2  0.0000   1.025362   8.385971  7.653733
483   2  0.0000  -0.444526   5.290615 15.307466
484   2  0.0000  -1.914414   2.195258 22.961199
485   2  0.0000  -3.384302  -0.900098 30.614932
486   2  0.0000  -4.854191  -3.995455 38.268665
487   2  0.0000   0.988589  17.221992 -0.000000
488   2  0.0000  -0.481299  14.126635  7.653733
489   2  0.0000  -1.951188  11.031278 15.307466
490   2  0.0000  -3.421076   7.935922 22.961199
491   2  0.0000  -4.890964   4.840565 30.614932
492   2  0.0000  -6.360852   1.745209 38.268665
493   2  0.0000  -0.518073  22.962655  0.000000
494   2  0.0000  -1.987961  19.867299  7.653733
495   2  0.0000  -3.457849  16.771942 15.307466
496   2  0.0000  -4.927738  13.676586 22.961199
497   2  0.0000  -6.397626  10.581229 30.614932
498   2  0.0000  -7.867514   7.485873 38.268665
499   2  0.0000  -2.024735  28.703319  0.000000
500   2  0.0000  -3.494623  25.607963  7.653733
501   2  0.0000  -4.964511  22.512606 15.307466
502   2  0.0000  -6.434399  19.417250 22.961199
503   2  0.0000  -7.904288  16.321893 30.614932
504   2  0.0000  -9.374176  13.226537 38.268665
505   2  0.0000  -6.842152  15.871844 45.922397
506   2  0.0000   9.547260  -3.095357  7.653733
507   2  0.0000  -0.962599  28.253270 15.307466
508   2  0.0000   6.607483  -9.286070 22.961199
509   2  0.0000  -3.902375  22.062557 30.614932
510   2  0.0000  -5.372264  18.967200 38.268665
511   2  0.0000   9.510486   5.740664  0.000000
512   2  0.0000   8.040598   2.645307  7.653733
513   2  0.0000   6.570710  -0.450049 15.307466
514   2  0.0000   5.100822  -3.545406 22.961199
515   2  0.0000   3.630933  -6.640762 30.614932
516   2  0.0000   2.161045  -9.736119 38.268665
517   2  0.0000  -0.815505  -7.090811 45.922397
518   2  0.0000   6.533936   8.385971  7.653733
519   2  0.0000   5.064048   5.290615 15.307466
520   2  0.0000   3.594160   2.195258 22.961199
521   2  0.0000   2.124272  -0.900098 30.614932
522   2  0.0000   0.654383  -3.995455 38.268665
523   2  0.0000   6.497163  17.221992  0.000000
524   2  0.0000   5.027275  14.126635  7.653733
525   2  0.0000   3.557386  11.031278 15.307466
526   2  0.0000   2.087498   7.935922 22.961199
527   2  0.0000   0.617610   4.840565 30.614932
528   2  0.0000  -0.852278   1.745209 38.268665
529   2  0.0000   4.990501  22.962655  0.000000
530   2  0.0000   3.520613  19.867299  7.653733
531   2  0.0000   2.050725  16.771942 15.307466
532   2  0.0000   0.580836  13.676586 22.961199
533   2  0.0000  -0.889052  10.581229 30.614932
534   2  0.0000  -2.358940   7.485873 38.268665
535   2  0.0000   3.483839  28.703319  0.000000
536   2  0.0000   2.013951  25.607963  7.653733
537   2  0.0000   0.544063  22.512606 15.307466
538   2  0.0000  -0.925825  19.417250 22.961199
539   2  0.0000  -2.395714  16.321893 30.614932
540   2  0.0000  -3.865602  13.226537 38.268665
541   2  0.0000  -1.333578  15.871844 45.922397
542   2  0.0000   6.015863  31.348626  7.653733
543   2  0.0000   4.545975  28.253270 15.307466
544   2  0.0000   3.076087  25.157913 22.961199
545   2  0.0000   1.606199  22.062557 30.614932
546   2  0.0000   0.136310  18.967200 38.268665
547   2  0.0000  15.019060   5.740664  0.000000
548   2  0.0000  13.549172   2.645307  7.653733
549   2  0.0000  12.079284  -0.450049 15.307466
550   2  0.0000  10.609396  -3.545406 22.961199
551   2  0.0000   9.139507  -6.640762 30.614932
552   2  0.0000   7.669619  -9.736119 38.268665
553   2  0.0000  13.512399  11.481328  0.000000
554   2  0.0000  12.042510   8.385971  7.653733
555   2  0.0000  10.572622   5.290615 15.307466
556   2  0.0000   9.102734   2.195258 22.961199
557   2  0.0000   7.632846  -0.900098 30.614932
558   2  0.0000   6.162957  -3.995455 38.268665
559   2  0.0000  12.005737  17.221992 -0.000000
560   2  0.0000  10.535849  14.126635  7.653733
561   2  0.0000   9.065960  11.031278 15.307466
562   2  0.0000   7.596072   7.935922 22.961199
563   2  0.0000   6.126184   4.840565 30.614932
564   2  0.0000   4.656296   1.745209 38.268665
565   2  0.0000  10.499075  22.962655  0.000000
566   2  0.0000   9.029187  19.867299  7.653733
567   2  0.0000   7.559299  16.771942 15.307466
568   2  0.0000   6.089410  13.676586 22.961199
569   2  0.0000   4.619522  10.581229 30.614932
570   2  0.0000   3.149634   7.485873 38.268665
571   2  0.0000   0.173084  10.131180 45.922397
572   2  0.0000   7.522525  25.607963  7.653733
573   2  0.0000   6.052637  22.512606 15.307466
574   2  0.0000   4.582749  19.417250 22.961199
575   2  0.0000   3.112860  16.321893 30.614932
576   2  0.0000   1.642972  13.226537 38.268665
577   2  0.0000   4.174996  15.871844 45.922397
578   2  0.0000  11.524438  31.348626  7.653733
579   2  0.0000  19.094520  -6.190713 15.307466
580   2  0.0000  17.624631  -9.286070 22.961199
581   2  0.0000   7.114773  22.062557 30.614932
582   2  0.0000   5.644885  18.967200 38.268665
583   2  0.0000  11.708305 -12.831475 45.922397
584   2  0.0000  19.057746   2.645307  7.653733
585   2  0.0000  17.587858  -0.450049 15.307466
586   2  0.0000  16.117970  -3.545406 22.961199
587   2  0.0000  14.648081  -6.640762 30.614932
588   2  0.0000  13.178193  -9.736119 38.268665
589   2  0.0000  19.020973  11.481328  0.000000
590   2  0.0000  17.551084   8.385971  7.653733
591   2  0.0000  16.081196   5.290615 15.307466
592   2  0.0000  14.611308   2.195258 22.961199
593   2  0.0000  13.141420  -0.900098 30.614932
594   2  0.0000  11.671531  -3.995455 38.268665
595   2  0.0000   8.694981  -1.350148 45.922397
596   2  0.0000  16.044423  14.126635  7.653733
597   2  0.0000  14.574534  11.031278 15.307466
598   2  0.0000  13.104646   7.935922 22.961199
599   2  0.0000  11.634758   4.840565 30.614932
600   2  0.0000  10.164870   1.745209 38.268665
601   2  0.0000   7.188320   4.390516 45.922397
602   2  0.0000  14.537761  19.867299  7.653733
603   2  0.0000  13.067873  16.771942 15.307466
604   2  0.0000  11.597984  13.676586 22.961199
605   2  0.0000  10.128096  10.581229 30.614932
606   2  0.0000   8.658208   7.485873 38.268665
607   2  0.0000  14.500987  28.703319  0.000000
608   2  0.0000  13.031099  25.607963  7.653733
609   2  0.0000  11.561211  22.512606 15.307466
610   2  0.0000  10.091323  19.417250 22.961199
611   2  0.0000   8.621434  16.321893 30.614932
612   2  0.0000   7.151546  13.226537 38.268665
613   2  0.0000  18.502900  34.443983  0.000000
614   2  0.0000  17.033012  31.348626  7.653733
615   2  0.0000  15.563123  28.253270 15.307466
616   2  0.0000  14.093235  25.157913 22.961199
617   2  0.0000  12.623347  22.062557 30.614932
618   2  0.0000  11.153459  18.967200 38.268665
619   2  0.0000  26.036208   5.740664  0.000000