Generated by pymatgen.io.lammps.data.LammpsData

3240  atoms

   4  atom types

0.000000 33.680420  xlo xhi
0.000000 35.099460  ylo yhi
0.000000 46.796311  zlo zhi
-9.212003 -8.987163 -18.925571  xy xz yz

Masses

1    6.94100
2  238.02891
3   95.94000
4   15.99940

Atoms

1     4 -0.5442  -0.349575   0.272073  4.632674
2     4 -0.5442  -1.376877  -1.319600  6.517771
3     2 -0.0000  -2.052841   1.235509  6.575848
4     4 -0.5442   0.779410   1.299786  6.736798
5     3  2.1960   5.434932   0.656462  4.643455
6     4 -0.5442   4.418930  -0.245159  2.120348
7     4 -0.5442   8.077224   0.258611  4.283612
8     4 -0.5442   7.358234  -0.525933  1.570278
9     4 -0.5442   1.745566  -1.545347  6.292792
10    2 -0.0000   4.435925  -1.098598  6.277426
11    4 -0.5442   2.451137   0.414162  4.358911
12    4 -0.5442   6.286911   1.328086  7.064014
13    4 -0.5442   7.129269  -1.260902  6.420320
14    3  2.1960   3.524487   1.469332  6.791825
15    4 -0.5442   1.680603  -0.501649  1.877108
16    3  2.1960  10.987382   0.260164  3.937946
17    3  2.1960  15.744945  -1.202372  6.127799
18    4 -0.5442  12.678503  -1.400262  6.342144
19    4 -0.5442  13.766732   0.260835  4.235232
20    4 -0.5442  16.481220   0.505009  4.217943
21    1  0.5250  12.969777  -0.578103  1.780488
22    2 -0.0000  10.069820  -1.489353  5.865443
23    3  2.1960  14.593384   1.254037  6.584530
24    4 -0.5442  11.792628   1.118617  6.656519
25    4 -0.5442  10.059507  -0.302245  1.438544
26    4 -0.5442  17.345008   1.437704  6.693858
27    4 -0.5442  18.622882  -1.031170  6.097705
28    4 -0.5442  21.257894  -0.049539  1.325565
29    4 -0.5442  22.186483   0.784842  3.871353
30    4 -0.5442  19.362503   0.781351  4.095419
31    4 -0.5442  21.333707  -0.815650  6.105414
32    3  2.1960  24.188234  -0.555251  5.869912
33    1  0.5250  12.510829  13.689469  9.318339
34    4 -0.5442  25.009133   1.290104  3.799980
35    1  0.5250  18.464630  -0.493048  1.504478
36    1  0.5250  11.235777  -4.515559 11.201813
37    3  2.1960  29.562107  -0.755477  5.702121
38    4 -0.5442  27.063737  -0.090828  1.545913
39    4 -0.5442  30.617456   0.672244  3.751506
40    4 -0.5442  27.645024   0.669930  4.152012
41    4 -0.5442  30.019210  -0.046691  1.002691
42    2 -0.0000  26.800962  -1.365311  6.175462
43    2 -0.0000  26.154617   1.455198  6.357952
44    4 -0.5442  28.995254   1.789732  6.284805
45    1  0.5250  -0.776846   4.566537  2.137276
46    1  0.5250  -0.226790   8.291962  5.102821
47    3  2.1960  -2.385680   5.311356  4.874792
48    4 -0.5442  -1.263640   7.068343  2.736616
49    4 -0.5442  -1.316984   2.948153  4.279855
50    4 -0.5442  -3.236481   7.908526  5.147884
51    4 -0.5442  -0.744568   8.890148  0.743673
52    4 -0.5442  -0.275476   3.929323  6.827982
53    4 -0.5442   0.302043   6.152137  0.134007
54    4 -0.5442  -1.078667   6.417256  7.145344
55    4 -0.5442  -3.010333   3.803965  6.864034
56    1  0.5250  -1.968966   9.279910  7.357014
57    1  0.5250   0.211197   1.963234  2.120557
58    4 -0.5442   0.355469   5.506185  4.554541
59    3  2.1960   8.868519   0.869426  6.766958
60    4 -0.5442   4.377957   3.271881  4.523741
61    4 -0.5442   7.140269   2.872591  4.479309
62    4 -0.5442   1.262996   7.394226  2.704821
63    1  0.5250   3.146594   2.134317  2.268520
64    1  0.5250   5.795171   2.151056  1.953244
65    1  0.5250   5.581683   8.331874  4.687707
66    3  2.1960   4.031276   7.366211  2.710600
67    3  2.1960   1.596453   2.931753  4.482018
68    3  2.1960   6.090523   5.693205  4.691158
69    4 -0.5442   1.927440   4.645972  2.198924
70    4 -0.5442   7.797036   4.909876  2.644377
71    4 -0.5442   3.080535   5.581616  4.907004
72    4 -0.5442   2.782921   8.649055  4.969519
73    4 -0.5442   4.934270   4.815175  2.158640
74    4 -0.5442   5.921123   6.292670  0.188318
75    4 -0.5442   6.912550   7.431915  2.540108
76    2 -0.0000   2.212192   9.038091  0.472269
77    4 -0.5442   5.176160   8.906157  0.654798
78    4 -0.5442   3.070813   6.214604  0.279012
79    4 -0.5442   8.170946   8.094371  5.116017
80    3  2.1960   8.153271   8.990995  0.549428
81    2 -0.0000   2.395354   4.199805  7.114509
82    3  2.1960   4.622871   7.115015  6.563213
83    4 -0.5442   5.432912   3.944357  6.903443
84    3  2.1960   1.429097   6.994423  7.071239
85    2 -0.0000   8.054277   3.473605  7.240241
86    4 -0.5442   8.632060   6.189148  0.220790
87    4 -0.5442   8.714737   5.381951  5.119573
88    4 -0.5442  27.136983  10.320782  9.953437
89    4 -0.5442   6.956170   6.457390  7.712993
90    1  0.5250  24.237967   0.050495  1.447734
91    4 -0.5442   2.304375   6.213638 14.913826
92    3  2.1960  28.127035  11.927281  7.651734
93    4 -0.5442   8.745529   2.031443  2.096015
94    4 -0.5442   9.673163   2.748347  4.732716
95    4 -0.5442  11.703976   1.849780  1.882422
96    1  0.5250  10.575424   4.601732  2.683905
97    1  0.5250  16.448370   4.692919  2.465772
98    1  0.5250  11.545556   5.388729  5.138434
99    1  0.5250  12.426000   7.168847  3.129170
100   1  0.5250  16.404022   8.484861  4.743061
101   3  2.1960  14.413136   1.942549  2.082261
102   4 -0.5442  13.444953   4.635858  2.280826
103   4 -0.5442  12.381953   2.846948  4.367938
104   4 -0.5442  14.518243   6.151671  0.259950
105   4 -0.5442  14.630639   5.317876  4.720210
106   4 -0.5442  10.786434   7.803101  5.297032
107   4 -0.5442  11.458692   6.201563  0.684475
108   4 -0.5442  15.267383   2.887031  4.746910
109   4 -0.5442  15.283869   7.067607  2.618697
110   1  0.5250   9.549212   7.301888  2.732207
111   4 -0.5442  16.352141   8.895354  0.809825
112   4 -0.5442  10.749444   8.743443  0.628047
113   3  2.1960  13.694275   7.999210  5.143183
114   3  2.1960  13.393896   8.680839  0.725922
115   2 -0.0000  13.491414   3.719737  7.012743
116   4 -0.5442  16.325669   4.015110  6.967873
117   4 -0.5442  10.670342   3.505647  7.263941
118   4 -0.5442  15.510195   6.734385  7.009063
119   4 -0.5442   9.802414   6.112811  7.609022
120   3  2.1960  12.559185   6.426757  7.348080
121   4 -0.5442  17.245005   6.354347  0.172103
122   4 -0.5442  11.798263   9.325995  7.401266
123   4 -0.5442   9.034139   8.566971  7.619760
124   4 -0.5442  23.064771   1.944288  6.434369
125   4 -0.5442  20.191609   1.857184  6.357467
126   4 -0.5442  17.422202   5.646823  4.978079
127   4 -0.5442  17.241256   2.059991  1.888403
128   2 -0.0000  18.654420   7.540219  6.693360
129   4 -0.5442  22.877306   2.448765  1.681172
130   1  0.5250  21.844132   4.923453  2.558312
131   1  0.5250  18.018587   3.161965  4.385825
132   1  0.5250  23.768999   3.593104  4.459978
133   1  0.5250  22.095148   8.794095  5.093835
134   3  2.1960  18.914799   9.207648  0.534740
135   4 -0.5442  19.307399   4.972439  2.521161
136   4 -0.5442  24.556151   4.843188  2.332668
137   4 -0.5442  21.086430   7.803509  2.567979
138   4 -0.5442  20.189194   5.977758  4.674063
139   4 -0.5442  22.859933   6.394522  4.739766
140   4 -0.5442  20.010206   2.332298  1.998809
141   4 -0.5442  18.016379   7.565474  2.643561
142   4 -0.5442  23.746445   7.478263  2.627045
143   4 -0.5442  21.070324   3.315743  4.429670
144   4 -0.5442  19.287949   8.861013  4.587795
145   4 -0.5442  22.993192   6.463880  0.233911
146   4 -0.5442  24.941289   8.484320  5.050666
147   3  2.1960  19.386165   4.442695  6.703594
148   4 -0.5442  22.015802   4.307030  6.773704
149   3  2.1960  24.526378   9.033002  0.343395
150   3  2.1960  25.138363   3.990151  6.967486
151   4 -0.5442  21.210977   7.016014  7.033779
152   2 -0.0000  24.339404   6.709266  7.215483
153   4 -0.5442  23.284528   9.606898  7.359333
154   2 -0.0000  20.016632   6.674362  0.438555
155   1  0.5250  25.466948  12.201971 11.508715
156   3  2.1960  29.723176   6.479718  7.021837
157   4 -0.5442  31.002297   6.662217  0.356760
158   2 -0.0000  25.428814   6.546514  0.058076
159   4 -0.5442  28.421835   6.878139  0.329092
160   4 -0.5442  28.557647   2.253735  1.745307
161   4 -0.5442  25.625123   5.826876  4.763287
162   4 -0.5442  25.921643   2.267712  1.489146
163   4 -0.5442  29.628543   7.634534  2.610200
164   1  0.5250  27.546566   4.795603  1.888159
165   1  0.5250  29.475963   3.087532  4.163696
166   1  0.5250  27.758728   8.506929  4.813435
167   4 -0.5442  30.153066   4.889508  2.171830
168   4 -0.5442  26.688808   7.513278  2.594329
169   4 -0.5442  28.481500   5.898047  4.373083
170   4 -0.5442  31.331829   2.323253  1.533475
171   4 -0.5442  30.171883   9.555851  0.703960
172   4 -0.5442  26.873697   3.311352  3.996969
173   4 -0.5442  27.363707   9.134897  0.454209
174   4 -0.5442  27.883704   4.158886  6.640915
175   4 -0.5442  26.983934   6.748367  6.974924
176   3  2.1960  26.211555   9.766679  7.173115
177   4 -0.5442  28.708855   9.015049  7.673200
178   1  0.5250  -2.229270   9.804637  3.244223
179   4 -0.5442   0.500707  10.028957  2.844163
180   4 -0.5442  -3.719491  15.423833  3.505890
181   4 -0.5442  -2.788119  12.641534  3.482147
182   4 -0.5442  -1.741519  14.137535  5.516976
183   4 -0.5442  -0.208675  12.841780  3.398466
184   4 -0.5442  -1.379597  11.623400  1.225752
185   4 -0.5442  -2.159724  14.586937  1.308618
186   4 -0.5442  -1.388267  11.203782  5.310052
187   3  2.1960   0.020030  12.663052  7.005533
188   2 -0.0000  -4.016042  10.791234  5.587425
189   4 -0.5442  -2.677523  12.404017  7.617925
190   4 -0.5442   0.697907  14.371334  1.220710
191   3  2.1960  -4.524363  13.543365  5.611968
192   1  0.5250  -1.038783  15.568911  3.443752
193   2 -0.0000   0.702392   9.745692  7.166075
194   2 -0.0000   6.352810   9.513946  7.310113
195   4 -0.5442   1.105008  14.483095  5.108620
196   3  2.1960   1.688190  11.254867  5.061434
197   4 -0.5442   4.380584  10.592049  5.613520
198   4 -0.5442   3.332599  10.046201  2.919357
199   1  0.5250   6.420110   9.972107  2.894324
200   3  2.1960   6.130113  14.148811  1.072625
201   4 -0.5442   3.422252  14.670219  0.877148
202   4 -0.5442   1.498208  11.701378  1.061812
203   4 -0.5442   7.331483  11.629443  0.854609
204   4 -0.5442   2.647217  13.063663  3.013308
205   4 -0.5442   7.387421  11.128325  5.192985
206   4 -0.5442   5.280852  12.507788  3.500741
207   4 -0.5442   8.097091  12.994123  2.798452
208   4 -0.5442   3.711071  13.596704  5.561244
209   4 -0.5442   6.721653  14.241789  4.872567
210   4 -0.5442   4.265026  11.747653  0.859997
211   3  2.1960   5.856478  12.658969  7.011573
212   1  0.5250   4.625911  15.503977  3.159028
213   1  0.5250   7.343349  15.925169  2.819866
214   4 -0.5442   2.037361  15.981596  3.002076
215   4 -0.5442   2.657829  11.935137  7.602595
216   4 -0.5442   9.198457  10.040890  2.884170
217   4 -0.5442   8.959416  14.626692  0.868605
218   4 -0.5442   9.330991  13.095572  5.722475
219   3  2.1960  14.555503   9.856459  2.968367
220   4 -0.5442  11.845020   9.599315  3.186264
221   1  0.5250  12.646481  15.596894  3.145363
222   4 -0.5442  10.087172  10.384912  5.534825
223   2 -0.0000  12.913678  10.886359  5.331524
224   4 -0.5442  10.085715  11.492524  0.645575
225   3  2.1960  10.909991  12.159428  3.384775
226   1  0.5250  15.414271  11.392243  5.087769
227   4 -0.5442  14.326284  14.258220  1.028100
228   4 -0.5442  16.876729  12.824067  7.054990
229   4 -0.5442  13.662253  12.674134  3.254216
230   4 -0.5442  14.990189  14.368780  5.117876
231   4 -0.5442  12.286812  13.672941  5.485805
232   4 -0.5442  11.567850  14.056071  1.413950
233   4 -0.5442  12.616240  11.337156  1.253052
234   4 -0.5442  15.430324  11.410680  0.952244
235   4 -0.5442  16.356371  12.963029  2.788729
236   3  2.1960  14.820043   9.437773  7.019700
237   1  0.5250   9.981754  15.037541  3.729119
238   4 -0.5442  14.070519  12.510654  7.507777
239   1  0.5250  15.597659  15.718547  3.014584
240   2 -0.0000  11.149680  11.928859  7.498497
241   4 -0.5442  10.873401  16.867064  1.413101
242   4 -0.5442  20.204849   9.892679  6.999433
243   4 -0.5442  17.101707  10.239907  3.121668
244   4 -0.5442  21.803882   9.122062  0.456405
245   1  0.5250  21.252942  15.782162  2.940847
246   1  0.5250  24.183439  15.750986  3.211470
247   4 -0.5442  17.411414  14.583092  1.165269
248   4 -0.5442  17.623633  10.172223  6.909274
249   4 -0.5442  23.587546  14.103752  5.347681
250   4 -0.5442  17.776742  14.356208  4.948279
251   2 -0.0000  24.026396  11.868628  0.487878
252   1  0.5250  20.155044  10.449831  2.816022
253   3  2.1960  23.026009  14.629116  0.978451
254   3  2.1960  18.457590  11.798941  4.785614
255   4 -0.5442  22.982700  10.103462  2.780927
256   4 -0.5442  20.309938  14.487109  0.642957
257   4 -0.5442  18.294984  11.946551  0.755240
258   4 -0.5442  25.071515  12.655708  3.219849
259   4 -0.5442  19.521642  13.251184  2.877279
260   4 -0.5442  24.158456  11.141832  5.181913
261   4 -0.5442  20.736230  14.327785  5.164845
262   4 -0.5442  21.306111  11.442792  5.128417
263   4 -0.5442  22.328466  12.909909  3.040405
264   4 -0.5442  21.380932  11.810982  0.819855
265   4 -0.5442  19.872812  12.456752  7.240069
266   3  2.1960  22.789777  12.401766  7.408835
267   4 -0.5442  25.602795  12.726583  7.151646
268   4 -0.5442  18.574262  16.064631  3.141676
269   4 -0.5442  27.252843  16.178182  3.127490
270   4 -0.5442  26.052872  14.770701  1.383024
271   1  0.5250  25.688260   9.873828  2.874094
272   4 -0.5442  26.382859  14.170387  4.868218
273   2 -0.0000  29.759833  12.373020  0.897089
274   4 -0.5442  28.122553  12.989448  2.886197
275   4 -0.5442  27.155568  11.408731  4.875825
276   3  2.1960  29.027424  15.243272  0.951555
277   4 -0.5442  28.727323  10.198427  2.843531
278   4 -0.5442  26.832731  11.811406  1.008693
279   3  2.1960  -2.360315  -3.787632 12.954190
280   4 -0.5442  -0.644040  -1.032781 13.750358
281   4 -0.5442  -0.553472  -0.280916  8.871680
282   4 -0.5442  -1.089242  -1.997454 11.108161
283   4 -0.5442  -2.165386   0.777359 11.094410
284   4 -0.5442  -3.147375  -1.076557 13.019290
285   4 -0.5442   0.184093  -5.388651 15.469140
286   3  2.1960  -4.130555   1.743314 13.369494
287   2 -0.0000  -3.134355  -5.195667 15.262433
288   4 -0.5442  -1.472601   1.554008 13.568853
289   4 -0.5442   1.350671   8.748940 15.375456
290   1  0.5250   0.623898   0.358523 11.342132
291   3  2.1960   0.533672  -3.528893 13.278710
292   1  0.5250   0.718223  -2.950307  8.424055
293   2 -0.0000   2.254251  -1.437091 13.448867
294   1  0.5250   6.312074  -2.985049  8.720337
295   1  0.5250   6.283040   0.299985 11.532729
296   3  2.1960   6.395822  -3.653553 13.461494
297   4 -0.5442   3.448606  -2.783006  8.421083
298   4 -0.5442   5.090913  -1.357791 13.673559
299   4 -0.5442   5.085227  -0.505403  8.963309
300   4 -0.5442   4.288653  -2.070309 11.037365
301   4 -0.5442   1.718131  -2.149295 10.724641
302   4 -0.5442   6.997473  -2.117612 11.226767
303   4 -0.5442   3.420704  -3.811294 13.398424
304   4 -0.5442   2.413304  -0.159778  8.928461
305   4 -0.5442   8.061899  -0.481125  9.143042
306   4 -0.5442   3.611880   0.640816 11.480248
307   4 -0.5442   8.101910  -1.131203 13.839052
308   3  2.1960   1.639188   1.055914 13.974718
309   4 -0.5442   8.518958  -5.429795 15.474775
310   3  2.1960   7.231637   1.266031 13.808093
311   4 -0.5442   4.438104   1.514274 14.056390
312   3  2.1960  18.043617  13.542215  9.405814
313   4 -0.5442   5.817718  -5.417248 15.329013
314   3  2.1960  26.359526   8.915891 15.138924
315   4 -0.5442  11.310494  -5.272695 15.218543
316   4 -0.5442   8.922540   0.364155 11.679564
317   4 -0.5442   8.923696  -2.961043  8.205538
318   4 -0.5442   9.074266  -3.670736 13.026557
319   1  0.5250  12.055043  -3.384585 13.367531
320   4 -0.5442  15.560638   1.186194 14.249163
321   4 -0.5442  13.884622  -1.052798 13.923151
322   4 -0.5442  10.892134  -0.552481  8.684051
323   1  0.5250  11.534973   0.518671 11.249224
324   1  0.5250  16.583441  -0.848062 12.981499
325   4 -0.5442  14.657608  -2.889126  8.249030
326   4 -0.5442   9.832055  -2.298722 10.644384
327   4 -0.5442  14.765002  -3.510566 12.905903
328   4 -0.5442  13.027910  -1.971724 11.287731
329   4 -0.5442  13.670704  -0.512417  8.953944
330   4 -0.5442  14.308496   0.782446 11.418375
331   4 -0.5442  11.898218  -3.122294  8.925446
332   1  0.5250  15.708280  -1.720410 10.647551
333   2 -0.0000  10.691437  -1.087817 13.363587
334   4 -0.5442  16.471679  -0.334698  8.707467
335   3  2.1960  16.563379  -5.043435 14.714642
336   4 -0.5442   9.956653   1.653013 13.958908
337   3  2.1960  12.782909   1.562243 13.500109
338   4 -0.5442  14.012574  -5.005563 15.143911
339   4 -0.5442  26.392119  13.442560  9.492929
340   4 -0.5442  21.457783  -2.321728 15.238568
341   3  2.1960  24.168007  -2.494077 15.063495
342   3  2.1960  19.475011  -5.294681 14.980800
343   4 -0.5442  23.282779  -2.580829  7.370673
344   4 -0.5442  22.142858  -4.873254 14.631631
345   4 -0.5442  17.427562  -2.885132  8.219757
346   3  2.1960  19.220015   0.019759  8.568716
347   2 -0.0000  20.447297  -2.497519  8.011728
348   1  0.5250  21.890442  -0.858376 12.934904
349   3  2.1960  17.681440   0.832909 10.920018
350   3  2.1960  24.947460  -0.160937  8.457413
351   4 -0.5442  22.310129  -0.150740  8.512690
352   4 -0.5442  21.245706  -2.099888 10.646804
353   4 -0.5442  20.258270  -3.430407 12.885290
354   4 -0.5442  17.535548  -3.622150 12.465497
355   4 -0.5442  23.122366  -3.375222 12.525487
356   4 -0.5442  18.360185  -1.843071 10.566043
357   4 -0.5442  24.277740  -1.929440 10.321019
358   4 -0.5442  19.239180  -0.980618 13.331671
359   2 -0.0000  24.708582  -0.949781 12.772905
360   1  0.5250  20.266294   0.644805 10.928301
361   4 -0.5442  23.200696   0.751247 11.139657
362   3  2.1960  24.045853   1.757721 13.487498
363   4 -0.5442  21.271129   1.671469 13.401172
364   3  2.1960  18.430332   1.657213 13.556964
365   4 -0.5442  17.273694  12.078875 11.400882
366   3  2.1960  25.123263  -5.176178 14.808010
367   4 -0.5442  31.731130  -3.208665  8.445983
368   4 -0.5442  25.895585  -2.892228  8.136009
369   3  2.1960  30.367177  -0.471293  8.506167
370   4 -0.5442  26.012373   0.681571 11.030682
371   1  0.5250  28.718909   0.417409 11.121698
372   4 -0.5442  27.679300  -0.018422  8.295905
373   4 -0.5442  27.827919  -1.268254 13.209044
374   4 -0.5442  27.025613  -1.888494 10.635887
375   4 -0.5442  25.698873  -3.419584 13.040358
376   4 -0.5442  29.803477  -2.316253 10.546737
377   4 -0.5442  28.986937  -2.960321  7.826485
378   1  0.5250  28.439450  -3.901712 12.490302
379   4 -0.5442  27.817925  -5.349393 14.820552
380   4 -0.5442  26.815079   1.567982 13.558734
381   3  2.1960  29.792652  -2.484154 15.178620
382   3  2.1960  -4.961381   4.367964 14.157484
383   4 -0.5442  -0.510700   3.583600 11.265329
384   1  0.5250  -1.551707   2.491938  8.984916
385   3  2.1960  -5.249408   7.526319 13.339235
386   3  2.1960  -0.256752   6.687463 14.273634
387   4 -0.5442  -0.209998   7.989334  9.203702
388   4 -0.5442  -2.415014   5.044233  9.237594
389   4 -0.5442  -3.789602   5.985375 11.776444
390   4 -0.5442  -3.157687   3.193324 11.412453
391   4 -0.5442  -1.962233   4.423041 13.617291
392   4 -0.5442  -2.358595   7.910346 13.224250
393   4 -0.5442  -3.156429   7.592642  9.440632
394   4 -0.5442  -1.200647   6.441335 11.318426
395   2 -0.0000  -3.327859   6.438370 15.134472
396   4 -0.5442  -4.569550   9.211738 11.380024
397   4 -0.5442   0.496145   5.214234  8.993736
398   1  0.5250  -1.651994   9.426118 11.071137
399   4 -0.5442   0.759193   8.523696 12.134461
400   2 -0.0000   0.557401   3.748658 14.351499
401   4 -0.5442   7.019803   1.894699  9.339352
402   4 -0.5442   1.306261   2.131970  9.495020
403   3  2.1960   6.219928   3.858928 14.391134
404   4 -0.5442   3.052495   7.681753 12.838349
405   1  0.5250   4.250091   2.311862  9.209589
406   1  0.5250   3.394518   9.260218  7.657851
407   1  0.5250   7.952558   7.355152  9.976739
408   1  0.5250   2.399635   7.079506  9.926642
409   3  2.1960   5.571799   6.550187 14.422065
410   4 -0.5442   5.281143   7.818604  9.470542
411   4 -0.5442   3.969179   5.690189  8.604786
412   4 -0.5442   1.732809   2.724541 12.086483
413   4 -0.5442   2.852383   4.371647 10.503138
414   4 -0.5442   5.132707   3.112480 11.764705
415   4 -0.5442   7.846220   2.992959 11.734161
416   4 -0.5442   6.095097   4.694379  9.588314
417   4 -0.5442   4.674793   6.052080 11.700582
418   2 -0.0000   3.597930   4.185745 13.768006
419   4 -0.5442   1.152159   5.695308 12.358424
420   4 -0.5442   7.277212   5.790590 12.259051
421   4 -0.5442   6.387733   8.283463 12.156273
422   4 -0.5442   8.873445   7.463698 13.702857
423   4 -0.5442  19.002764  10.356018 13.504344
424   4 -0.5442   4.017271   9.405834 11.162268
425   2 -0.0000  13.229717   6.301366 15.502255
426   4 -0.5442   8.835077   4.777605  9.759248
427   4 -0.5442   9.130918   4.231674 13.848844
428   4 -0.5442  12.588950   2.124182  9.283197
429   4 -0.5442  15.523849   2.253390  9.062220
430   1  0.5250   9.720524   2.091947  9.441545
431   1  0.5250  11.049983   7.776415  9.612882
432   1  0.5250  13.267122   6.802782 11.262939
433   1  0.5250  12.403324   5.022669 13.300917
434   4 -0.5442  16.034047   6.600107 10.644359
435   4 -0.5442  14.351632   5.142542  9.034193
436   4 -0.5442  11.654938   5.044834  9.746770
437   4 -0.5442  13.779379   3.559609 11.346225
438   4 -0.5442  11.421060   7.727143 13.646783
439   4 -0.5442  10.750206   3.249160 11.724797
440   4 -0.5442  14.423876   7.908780 13.331090
441   4 -0.5442  10.326261   6.121735 11.827174
442   4 -0.5442  13.960828   7.873854  8.959111
443   4 -0.5442  15.044363   5.273847 12.985997
444   4 -0.5442  16.132941   2.720354 12.143843
445   4 -0.5442   9.450342   9.078658 11.646839
446   4 -0.5442  14.361871   3.797589 15.108187
447   4 -0.5442  16.938802   8.358894  8.920449
448   3  2.1960  11.412439   3.644016 15.331961
449   4 -0.5442  12.118501   9.512341 11.411320
450   3  2.1960  10.283104   6.104621 15.546354
451   4 -0.5442  15.987742   6.266376 15.407912
452   3  2.1960  17.001783   7.421644 13.078811
453   4 -0.5442  16.793362   4.170839 10.015230
454   3  2.1960  17.153006   3.561718 14.845223
455   3  2.1960  17.723452   5.828833  8.528399
456   4 -0.5442  18.566767   2.656335  8.816664
457   2 -0.0000  21.286145   2.503596  8.779853
458   1  0.5250  19.677252   8.304414  9.115229
459   1  0.5250  25.175826   8.403478  9.234048
460   1  0.5250  21.465155   5.906809 11.928857
461   3  2.1960  23.046050   5.290393  9.087105
462   3  2.1960  23.045783   8.102508 13.221052
463   4 -0.5442  22.297642   7.782938  9.645367
464   4 -0.5442  20.499786   5.192517  9.442380
465   4 -0.5442  19.732884   3.379835 11.276527
466   4 -0.5442  17.797257   4.956553 12.755715
467   4 -0.5442  23.217841   4.341563 13.625402
468   4 -0.5442  20.231920   4.017007 13.945453
469   4 -0.5442  20.055728   7.478297 13.544509
470   4 -0.5442  22.406172   3.449158 11.223120
471   4 -0.5442  18.980910   6.541351 10.868190
472   4 -0.5442  24.146588   6.300185 11.476542
473   4 -0.5442  24.123942   2.354701  9.197112
474   4 -0.5442  25.082115   3.395710 11.359275
475   2 -0.0000  24.885975   6.498557 14.178205
476   4 -0.5442  23.494471   9.767902 11.172700
477   4 -0.5442  20.722441   9.146352 11.652141
478   4 -0.5442  17.940911   9.224566 11.326499
479   4 -0.5442  21.859284   6.344889 15.095549
480   4 -0.5442  26.055909   8.468962 11.939984
481   4 -0.5442  25.960908   4.047688 14.339466
482   4 -0.5442  25.850782   5.382807  9.478017
483   1  0.5250  26.794555   2.423358  8.861195
484   4 -0.5442  28.437100   4.785118  9.249931
485   4 -0.5442  26.964723   5.466912 12.154526
486   4 -0.5442  27.888527   3.009874 11.503620
487   1  0.5250  27.757473   7.450474  9.685673
488   4 -0.5442  29.491954   2.165348  9.083030
489   4 -0.5442  27.284327   6.233802 15.292961
490   4 -0.5442  15.621448  -0.391964  1.461834
491   3  2.1960   9.942357   3.660230  0.048994
492   4 -0.5442   0.106361  11.822135 11.839211
493   1  0.5250  -2.615252  12.128549 11.549856
494   4 -0.5442  -5.342906  11.972624 11.657229
495   2 -0.0000  -5.989082  10.323789 13.628242
496   4 -0.5442  -0.651414  10.200178 13.664750
497   4 -0.5442  -3.367955  10.523595 13.524203
498   4 -0.5442  -3.615724  10.852752  9.315748
499   4 -0.5442  -0.791820  11.077395  9.155253
500   4 -0.5442  26.993169  -2.651139 15.239241
501   1  0.5250   1.036982  13.309877  9.623741
502   4 -0.5442   8.303051  11.444827  7.742514
503   1  0.5250   6.852586  13.206270  9.706146
504   1  0.5250   2.242619  10.489783 13.272986
505   4 -0.5442   4.860335  11.220807  9.200792
506   4 -0.5442   1.939034  10.080622  9.813755
507   4 -0.5442   7.903012  10.394955 13.737836
508   4 -0.5442   7.237753  10.047730  9.786586
509   4 -0.5442   3.091484  12.054853 11.245592
510   4 -0.5442   6.029488  11.678992 11.863961
511   2 -0.0000   4.896226   9.674993 13.731721
512   4 -0.5442   9.609010  13.422015  9.398042
513   4 -0.5442  10.653920  10.429959 13.603911
514   4 -0.5442  14.892571   9.325718 11.134247
515   1  0.5250   8.702675  11.891530 11.534228
516   4 -0.5442  15.914729  11.205507  9.239106
517   1  0.5250  14.348346  12.121564 11.407144
518   4 -0.5442  13.490735  10.458661 13.933886
519   2 -0.0000  16.141497  10.331533 13.231270
520   4 -0.5442  13.234664  10.678180  9.155082
521   4 -0.5442  11.485358  11.913690 11.460487
522   4 -0.5442  10.070787  10.338622  9.447671
523   4 -0.5442  24.896451  10.402322 13.544834
524   4 -0.5442  24.612097  11.061407  8.976383
525   4 -0.5442  22.150110  10.766175 13.575138
526   3  2.1960  10.034883  -2.885102 15.584707
527   4 -0.5442  21.451505  10.923271  9.253064
528   1  0.5250  19.891826  12.276243 11.839171
529   1  0.5250  18.791897  10.830152  9.380828
530   4 -0.5442  22.816228  12.331125 11.406781
531   4 -0.5442  22.906789   0.071050 15.392920
532   2 -0.0000  18.504493  -2.698245 15.070867
533   4 -0.5442  15.783735  -2.734479 15.363096
534   2 -0.0000  28.525927   0.071466 15.465505
535   4 -0.5442  25.652711   0.030957 15.382966
536   3  2.1960  15.342684   8.941565 15.574639
537   4 -0.5442  18.061618   8.524913 15.382047
538   3  2.1960  20.963655   9.098755 15.400252
539   2 -0.0000  18.692277   5.865699 15.170856
540   4 -0.5442  18.318035   3.796770  0.159017
541   2 -0.0000  15.540089   3.591723  0.036277
542   3  2.1960  -3.700913  -7.784221 21.809204
543   4 -0.5442  -2.951275  -6.263622 19.706588
544   3  2.1960  -4.792391  -5.209885 22.123954
545   4 -0.5442  -1.837322  -5.444217 22.261930
546   4 -0.5442  -0.809256  -8.005388 21.911503
547   3  2.1960   1.823657  -8.148142 21.847284
548   4 -0.5442   2.747366  -6.314779 19.900495
549   4 -0.5442  -0.139034  -6.456481 19.921157
550   4 -0.5442   5.340639  -6.025963 19.989434
551   1  0.5250   4.791585  -7.779513 22.347370
552   2 -0.0000   0.924030  -5.365074 22.227857
553   4 -0.5442   3.621251  -5.339767 22.346806
554   3  2.1960   6.485316  -5.166345 22.694234
555   3  2.1960   7.722195  -7.530880 22.098702
556   3  2.1960  13.049018  -7.798277 21.948182
557   4 -0.5442   8.046109  -6.334241 19.816949
558   4 -0.5442  11.140460  -6.161365 19.951255
559   4 -0.5442  10.407546  -7.740369 22.112778
560   3  2.1960  11.961636  -5.329767 22.458603
561   4 -0.5442   9.183599  -5.185170 22.381398
562   4 -0.5442  14.107631  -6.289151 19.833353
563   1  0.5250  10.276048  -6.984320 17.482753
564   4 -0.5442  15.836845  -7.630628 21.613567
565   3  2.1960  18.690981  -7.547477 21.812707
566   4 -0.5442  19.402918  -6.025203 19.477706
567   4 -0.5442  16.698587  -5.975695 19.483837
568   4 -0.5442  21.446188  -7.304487 21.487527
569   4 -0.5442  20.281827  -4.867562 21.808777
570   4 -0.5442  14.532924  -5.294185 22.265129
571   2 -0.0000  17.648225  -5.075065 21.947325
572   4 -0.5442  22.235173   5.914619 26.484773
573   4 -0.5442  22.432647  -6.086080 19.330326
574   4 -0.5442  27.926538  -5.962940 19.487651
575   3  2.1960  24.225466  -7.835634 21.634574
576   4 -0.5442  25.372970  -5.944501 19.482572
577   4 -0.5442  27.185459  -7.658150 21.744146
578   2 -0.0000  23.103749  -4.953351 21.910760
579   4 -0.5442  26.056232  -5.075436 21.964839
580   4 -0.5442  28.697240  -4.314380 17.330765
581   4 -0.5442  26.003492  -4.417823 17.456157
582   1  0.5250  -3.334436   1.518550 20.582561
583   4 -0.5442  -5.054200  -1.037411 20.085784
584   4 -0.5442  -3.196891  -1.845639 17.752043
585   4 -0.5442  -4.084758   0.751466 17.894914
586   2 -0.0000  -3.631632  -3.729127 20.075991
587   2 -0.0000  -6.092912   1.461398 20.778228
588   4 -0.5442  -2.936011  -2.966941 22.572016
589   1  0.5250  21.062300  -6.821931 17.085393
590   4 -0.5442  -5.259676   3.469417 18.922224
591   4 -0.5442  -3.957724  -0.296031 22.778326
592   3  2.1960  -5.837916  -2.653798 22.279581
593   4 -0.5442  -5.419350   2.204173 23.450506
594   1  0.5250  -7.333047   7.466368 24.450103
595   4 -0.5442  -1.858045  -4.499706 17.689718
596   4 -0.5442  -2.468181  -1.319831 20.588035
597   4 -0.5442  -4.542313   7.517620 24.703339
598   4 -0.5442   0.854714  -4.285368 17.998905
599   2 -0.0000  24.186671  -6.814089 17.071565
600   4 -0.5442   3.793250  -4.549906 18.149436
601   4 -0.5442  -1.043855  -3.608664 20.225152
602   1  0.5250   2.630047  -2.101166 18.443285
603   1  0.5250  -0.365064  -1.848671 18.239422
604   1  0.5250   4.666256  -3.419502 20.427779
605   3  2.1960  -0.451555   2.170658 16.442250
606   4 -0.5442   0.594553  -0.304750 16.065196
607   4 -0.5442   5.475219  -1.860538 18.129943
608   4 -0.5442   2.183163   1.433776 21.066702
609   4 -0.5442   1.420133   0.546506 18.521839
610   4 -0.5442   0.502345  -1.142928 20.751216
611   4 -0.5442   4.208571   0.522246 18.896913
612   4 -0.5442   3.367557  -0.918244 21.029542
613   4 -0.5442  -1.507778   0.671112 18.471789
614   4 -0.5442   5.137661   2.238786 16.682930
615   4 -0.5442   1.777894  -3.795359 20.593286
616   4 -0.5442   3.310351  -0.131660 16.197639
617   2 -0.0000  -0.639730   1.077525 21.182338
618   2 -0.0000   5.071325   1.401699 21.613738
619   4 -0.5442   2.439609   2.636194 16.165824