Generated by pymatgen.io.lammps.data.LammpsData

3888  atoms

   4  atom types

0.000000 33.325006  xlo xhi
0.000000 34.453639  ylo yhi
0.000000 53.784475  zlo zhi
1.570908 13.086226 5.221077  xy xz yz

Masses

1  132.905452
2    6.941000
3   28.085500
4   15.999400

Atoms

1     1  0.7900  3.544875  1.128721  2.550455
2     1  0.7900  5.725913  1.998901 11.514535
3     1  0.7900  7.906950  2.869080 20.478614
4     1  0.7900 10.087988  3.739260 29.442693
5     1  0.7900 12.269026  4.609439 38.406772
6     1  0.7900 14.450063  5.479619 47.370851
7     1  0.7900  3.806693  6.870994  2.550455
8     1  0.7900  5.987731  7.741174 11.514535
9     1  0.7900  8.168768  8.611353 20.478614
10    1  0.7900 10.349806  9.481533 29.442693
11    1  0.7900 12.530844 10.351712 38.406772
12    1  0.7900 14.711881 11.221892 47.370851
13    1  0.7900  4.068511 12.613268  2.550455
14    1  0.7900  6.249548 13.483447 11.514535
15    1  0.7900  8.430586 14.353627 20.478614
16    1  0.7900 10.611624 15.223806 29.442693
17    1  0.7900 12.792662 16.093986 38.406772
18    1  0.7900 14.973699 16.964165 47.370851
19    1  0.7900  4.330329 18.355541  2.550455
20    1  0.7900  6.511366 19.225720 11.514535
21    1  0.7900  8.692404 20.095900 20.478614
22    1  0.7900 10.873442 20.966079 29.442693
23    1  0.7900 13.054480 21.836259 38.406772
24    1  0.7900 15.235517 22.706438 47.370851
25    1  0.7900  4.592147 24.097814  2.550455
26    1  0.7900  6.773184 24.967994 11.514535
27    1  0.7900  8.954222 25.838173 20.478614
28    1  0.7900 11.135260 26.708353 29.442693
29    1  0.7900 13.316298 27.578532 38.406772
30    1  0.7900 15.497335 28.448712 47.370851
31    1  0.7900  4.853965 29.840087  2.550455
32    1  0.7900  7.035002 30.710267 11.514535
33    1  0.7900  9.216040 31.580446 20.478614
34    1  0.7900 11.397078 32.450626 29.442693
35    1  0.7900 13.578115 33.320805 38.406772
36    1  0.7900 15.759153 34.190985 47.370851
37    1  0.7900  9.099042  1.128721  2.550455
38    1  0.7900 11.280080  1.998901 11.514535
39    1  0.7900 13.461118  2.869080 20.478614
40    1  0.7900 15.642156  3.739260 29.442693
41    1  0.7900 17.823193  4.609439 38.406772
42    1  0.7900 20.004231  5.479619 47.370851
43    1  0.7900  9.360860  6.870994  2.550455
44    1  0.7900 11.541898  7.741174 11.514535
45    1  0.7900 13.722936  8.611353 20.478614
46    1  0.7900 15.903973  9.481533 29.442693
47    1  0.7900 18.085011 10.351712 38.406772
48    1  0.7900 20.266049 11.221892 47.370851
49    1  0.7900  9.622678 12.613268  2.550455
50    1  0.7900 11.803716 13.483447 11.514535
51    1  0.7900 13.984754 14.353627 20.478614
52    1  0.7900 16.165791 15.223806 29.442693
53    1  0.7900 18.346829 16.093986 38.406772
54    1  0.7900 20.527867 16.964165 47.370851
55    1  0.7900  9.884496 18.355541  2.550455
56    1  0.7900 12.065534 19.225720 11.514535
57    1  0.7900 14.246572 20.095900 20.478614
58    1  0.7900 16.427609 20.966079 29.442693
59    1  0.7900 18.608647 21.836259 38.406772
60    1  0.7900 20.789685 22.706438 47.370851
61    1  0.7900 10.146314 24.097814  2.550455
62    1  0.7900 12.327352 24.967994 11.514535
63    1  0.7900 14.508390 25.838173 20.478614
64    1  0.7900 16.689427 26.708353 29.442693
65    1  0.7900 18.870465 27.578532 38.406772
66    1  0.7900 21.051503 28.448712 47.370851
67    1  0.7900 10.408132 29.840087  2.550455
68    1  0.7900 12.589170 30.710267 11.514535
69    1  0.7900 14.770208 31.580446 20.478614
70    1  0.7900 16.951245 32.450626 29.442693
71    1  0.7900 19.132283 33.320805 38.406772
72    1  0.7900 21.313321 34.190985 47.370851
73    1  0.7900 14.653210  1.128721  2.550455
74    1  0.7900 16.834248  1.998901 11.514535
75    1  0.7900 19.015285  2.869080 20.478614
76    1  0.7900 21.196323  3.739260 29.442693
77    1  0.7900 23.377361  4.609439 38.406772
78    1  0.7900 25.558398  5.479619 47.370851
79    1  0.7900 14.915028  6.870994  2.550455
80    1  0.7900 17.096066  7.741174 11.514535
81    1  0.7900 19.277103  8.611353 20.478614
82    1  0.7900 21.458141  9.481533 29.442693
83    1  0.7900 23.639179 10.351712 38.406772
84    1  0.7900 25.820216 11.221892 47.370851
85    1  0.7900 15.176846 12.613268  2.550455
86    1  0.7900 17.357884 13.483447 11.514535
87    1  0.7900 19.538921 14.353627 20.478614
88    1  0.7900 21.719959 15.223806 29.442693
89    1  0.7900 23.900997 16.093986 38.406772
90    1  0.7900 26.082034 16.964165 47.370851
91    1  0.7900 15.438664 18.355541  2.550455
92    1  0.7900 17.619702 19.225720 11.514535
93    1  0.7900 19.800739 20.095900 20.478614
94    1  0.7900 21.981777 20.966079 29.442693
95    1  0.7900 24.162815 21.836259 38.406772
96    1  0.7900 26.343852 22.706438 47.370851
97    1  0.7900 15.700482 24.097814  2.550455
98    1  0.7900 17.881520 24.967994 11.514535
99    1  0.7900 20.062557 25.838173 20.478614
100   1  0.7900 22.243595 26.708353 29.442693
101   1  0.7900 24.424633 27.578532 38.406772
102   1  0.7900 26.605670 28.448712 47.370851
103   1  0.7900 15.962300 29.840087  2.550455
104   1  0.7900 18.143338 30.710267 11.514535
105   1  0.7900 20.324375 31.580446 20.478614
106   1  0.7900 22.505413 32.450626 29.442693
107   1  0.7900 24.686451 33.320805 38.406772
108   1  0.7900 26.867488 34.190985 47.370851
109   1  0.7900 20.207378  1.128721  2.550455
110   1  0.7900 22.388415  1.998901 11.514535
111   1  0.7900 24.569453  2.869080 20.478614
112   1  0.7900 26.750491  3.739260 29.442693
113   1  0.7900 28.931528  4.609439 38.406772
114   1  0.7900 31.112566  5.479619 47.370851
115   1  0.7900 20.469196  6.870994  2.550455
116   1  0.7900 22.650233  7.741174 11.514535
117   1  0.7900 24.831271  8.611353 20.478614
118   1  0.7900 27.012309  9.481533 29.442693
119   1  0.7900 29.193346 10.351712 38.406772
120   1  0.7900 31.374384 11.221892 47.370851
121   1  0.7900 20.731014 12.613268  2.550455
122   1  0.7900 22.912051 13.483447 11.514535
123   1  0.7900 25.093089 14.353627 20.478614
124   1  0.7900 27.274127 15.223806 29.442693
125   1  0.7900 29.455164 16.093986 38.406772
126   1  0.7900 31.636202 16.964165 47.370851
127   1  0.7900 20.992832 18.355541  2.550455
128   1  0.7900 23.173869 19.225720 11.514535
129   1  0.7900 25.354907 20.095900 20.478614
130   1  0.7900 27.535945 20.966079 29.442693
131   1  0.7900 29.716982 21.836259 38.406772
132   1  0.7900 31.898020 22.706438 47.370851
133   1  0.7900 21.254650 24.097814  2.550455
134   1  0.7900 23.435687 24.967994 11.514535
135   1  0.7900 25.616725 25.838173 20.478614
136   1  0.7900 27.797763 26.708353 29.442693
137   1  0.7900 29.978800 27.578532 38.406772
138   1  0.7900 32.159838 28.448712 47.370851
139   1  0.7900 21.516467 29.840087  2.550455
140   1  0.7900 23.697505 30.710267 11.514535
141   1  0.7900 25.878543 31.580446 20.478614
142   1  0.7900 28.059581 32.450626 29.442693
143   1  0.7900 30.240618 33.320805 38.406772
144   1  0.7900 32.421656 34.190985 47.370851
145   1  0.7900 25.761545  1.128721  2.550455
146   1  0.7900 27.942583  1.998901 11.514535
147   1  0.7900 30.123621  2.869080 20.478614
148   1  0.7900 32.304658  3.739260 29.442693
149   1  0.7900 34.485696  4.609439 38.406772
150   1  0.7900 36.666734  5.479619 47.370851
151   1  0.7900 26.023363  6.870994  2.550455
152   1  0.7900 28.204401  7.741174 11.514535
153   1  0.7900 30.385439  8.611353 20.478614
154   1  0.7900 32.566476  9.481533 29.442693
155   1  0.7900 34.747514 10.351712 38.406772
156   1  0.7900 36.928552 11.221892 47.370851
157   1  0.7900 26.285181 12.613268  2.550455
158   1  0.7900 28.466219 13.483447 11.514535
159   1  0.7900 30.647257 14.353627 20.478614
160   1  0.7900 32.828294 15.223806 29.442693
161   1  0.7900 35.009332 16.093986 38.406772
162   1  0.7900 37.190370 16.964165 47.370851
163   1  0.7900 26.546999 18.355541  2.550455
164   1  0.7900 28.728037 19.225720 11.514535
165   1  0.7900 30.909075 20.095900 20.478614
166   1  0.7900 33.090112 20.966079 29.442693
167   1  0.7900 35.271150 21.836259 38.406772
168   1  0.7900 37.452188 22.706438 47.370851
169   1  0.7900 26.808817 24.097814  2.550455
170   1  0.7900 28.989855 24.967994 11.514535
171   1  0.7900 31.170892 25.838173 20.478614
172   1  0.7900 33.351930 26.708353 29.442693
173   1  0.7900 35.532968 27.578532 38.406772
174   1  0.7900 37.714006 28.448712 47.370851
175   1  0.7900 27.070635 29.840087  2.550455
176   1  0.7900 29.251673 30.710267 11.514535
177   1  0.7900 31.432710 31.580446 20.478614
178   1  0.7900 33.613748 32.450626 29.442693
179   1  0.7900 35.794786 33.320805 38.406772
180   1  0.7900 37.975824 34.190985 47.370851
181   1  0.7900 31.315713  1.128721  2.550455
182   1  0.7900 33.496750  1.998901 11.514535
183   1  0.7900 35.677788  2.869080 20.478614
184   1  0.7900 37.858826  3.739260 29.442693
185   1  0.7900 40.039864  4.609439 38.406772
186   1  0.7900 42.220901  5.479619 47.370851
187   1  0.7900 31.577531  6.870994  2.550455
188   1  0.7900 33.758568  7.741174 11.514535
189   1  0.7900 35.939606  8.611353 20.478614
190   1  0.7900 38.120644  9.481533 29.442693
191   1  0.7900 40.301682 10.351712 38.406772
192   1  0.7900 42.482719 11.221892 47.370851
193   1  0.7900 31.839349 12.613268  2.550455
194   1  0.7900 34.020386 13.483447 11.514535
195   1  0.7900 36.201424 14.353627 20.478614
196   1  0.7900 38.382462 15.223806 29.442693
197   1  0.7900 40.563499 16.093986 38.406772
198   1  0.7900 42.744537 16.964165 47.370851
199   1  0.7900 32.101167 18.355541  2.550455
200   1  0.7900 34.282204 19.225720 11.514535
201   1  0.7900 36.463242 20.095900 20.478614
202   1  0.7900 38.644280 20.966079 29.442693
203   1  0.7900 40.825317 21.836259 38.406772
204   1  0.7900 43.006355 22.706438 47.370851
205   1  0.7900 32.362985 24.097814  2.550455
206   1  0.7900 34.544022 24.967994 11.514535
207   1  0.7900 36.725060 25.838173 20.478614
208   1  0.7900 38.906098 26.708353 29.442693
209   1  0.7900 41.087135 27.578532 38.406772
210   1  0.7900 43.268173 28.448712 47.370851
211   1  0.7900 32.624803 29.840087  2.550455
212   1  0.7900 34.805840 30.710267 11.514535
213   1  0.7900 36.986878 31.580446 20.478614
214   1  0.7900 39.167916 32.450626 29.442693
215   1  0.7900 41.348953 33.320805 38.406772
216   1  0.7900 43.529991 34.190985 47.370851
217   1  0.7900  4.452148  5.483731  6.413624
218   1  0.7900  6.633186  6.353911 15.377703
219   1  0.7900  8.814224  7.224090 24.341782
220   1  0.7900 10.995261  8.094270 33.305861
221   1  0.7900 13.176299  8.964449 42.269940
222   1  0.7900 15.357337  9.834629 51.234019
223   1  0.7900  4.713966 11.226005  6.413624
224   1  0.7900  6.895004 12.096184 15.377703
225   1  0.7900  9.076042 12.966364 24.341782
226   1  0.7900 11.257079 13.836543 33.305861
227   1  0.7900 13.438117 14.706723 42.269940
228   1  0.7900 15.619155 15.576902 51.234019
229   1  0.7900  4.975784 16.968278  6.413624
230   1  0.7900  7.156822 17.838457 15.377703
231   1  0.7900  9.337860 18.708637 24.341782
232   1  0.7900 11.518897 19.578816 33.305861
233   1  0.7900 13.699935 20.448996 42.269940
234   1  0.7900 15.880973 21.319175 51.234019
235   1  0.7900  5.237602 22.710551  6.413624
236   1  0.7900  7.418640 23.580731 15.377703
237   1  0.7900  9.599678 24.450910 24.341782
238   1  0.7900 11.780715 25.321090 33.305861
239   1  0.7900 13.961753 26.191269 42.269940
240   1  0.7900 16.142791 27.061448 51.234019
241   1  0.7900  5.499420 28.452824  6.413624
242   1  0.7900  7.680458 29.323004 15.377703
243   1  0.7900  9.861496 30.193183 24.341782
244   1  0.7900 12.042533 31.063363 33.305861
245   1  0.7900 14.223571 31.933542 42.269940
246   1  0.7900 16.404609 32.803722 51.234019
247   1  0.7900  5.761238 34.195097  6.413624
248   1  0.7900  7.942276 35.065277 15.377703
249   1  0.7900 10.123314 35.935456 24.341782
250   1  0.7900 12.304351 36.805636 33.305861
251   1  0.7900 14.485389 37.675815 42.269940
252   1  0.7900 16.666427 38.545995 51.234019
253   1  0.7900 10.006316  5.483731  6.413624
254   1  0.7900 12.187354  6.353911 15.377703
255   1  0.7900 14.368391  7.224090 24.341782
256   1  0.7900 16.549429  8.094270 33.305861
257   1  0.7900 18.730467  8.964449 42.269940
258   1  0.7900 20.911504  9.834629 51.234019
259   1  0.7900 10.268134 11.226005  6.413624
260   1  0.7900 12.449172 12.096184 15.377703
261   1  0.7900 14.630209 12.966364 24.341782
262   1  0.7900 16.811247 13.836543 33.305861
263   1  0.7900 18.992285 14.706723 42.269940
264   1  0.7900 21.173322 15.576902 51.234019
265   1  0.7900 10.529952 16.968278  6.413624
266   1  0.7900 12.710990 17.838457 15.377703
267   1  0.7900 14.892027 18.708637 24.341782
268   1  0.7900 17.073065 19.578816 33.305861
269   1  0.7900 19.254103 20.448996 42.269940
270   1  0.7900 21.435140 21.319175 51.234019
271   1  0.7900 10.791770 22.710551  6.413624
272   1  0.7900 12.972808 23.580731 15.377703
273   1  0.7900 15.153845 24.450910 24.341782
274   1  0.7900 17.334883 25.321090 33.305861
275   1  0.7900 19.515921 26.191269 42.269940
276   1  0.7900 21.696958 27.061448 51.234019
277   1  0.7900 11.053588 28.452824  6.413624
278   1  0.7900 13.234626 29.323004 15.377703
279   1  0.7900 15.415663 30.193183 24.341782
280   1  0.7900 17.596701 31.063363 33.305861
281   1  0.7900 19.777739 31.933542 42.269940
282   1  0.7900 21.958776 32.803722 51.234019
283   1  0.7900 11.315406 34.195097  6.413624
284   1  0.7900 13.496444 35.065277 15.377703
285   1  0.7900 15.677481 35.935456 24.341782
286   1  0.7900 17.858519 36.805636 33.305861
287   1  0.7900 20.039557 37.675815 42.269940
288   1  0.7900 22.220594 38.545995 51.234019
289   1  0.7900 15.560484  5.483731  6.413624
290   1  0.7900 17.741521  6.353911 15.377703
291   1  0.7900 19.922559  7.224090 24.341782
292   1  0.7900 22.103597  8.094270 33.305861
293   1  0.7900 24.284634  8.964449 42.269940
294   1  0.7900 26.465672  9.834629 51.234019
295   1  0.7900 15.822302 11.226005  6.413624
296   1  0.7900 18.003339 12.096184 15.377703
297   1  0.7900 20.184377 12.966364 24.341782
298   1  0.7900 22.365415 13.836543 33.305861
299   1  0.7900 24.546452 14.706723 42.269940
300   1  0.7900 26.727490 15.576902 51.234019
301   1  0.7900 16.084120 16.968278  6.413624
302   1  0.7900 18.265157 17.838457 15.377703
303   1  0.7900 20.446195 18.708637 24.341782
304   1  0.7900 22.627233 19.578816 33.305861
305   1  0.7900 24.808270 20.448996 42.269940
306   1  0.7900 26.989308 21.319175 51.234019
307   1  0.7900 16.345938 22.710551  6.413624
308   1  0.7900 18.526975 23.580731 15.377703
309   1  0.7900 20.708013 24.450910 24.341782
310   1  0.7900 22.889051 25.321090 33.305861
311   1  0.7900 25.070088 26.191269 42.269940
312   1  0.7900 27.251126 27.061448 51.234019
313   1  0.7900 16.607755 28.452824  6.413624
314   1  0.7900 18.788793 29.323004 15.377703
315   1  0.7900 20.969831 30.193183 24.341782
316   1  0.7900 23.150869 31.063363 33.305861
317   1  0.7900 25.331906 31.933542 42.269940
318   1  0.7900 27.512944 32.803722 51.234019
319   1  0.7900 16.869573 34.195097  6.413624
320   1  0.7900 19.050611 35.065277 15.377703
321   1  0.7900 21.231649 35.935456 24.341782
322   1  0.7900 23.412687 36.805636 33.305861
323   1  0.7900 25.593724 37.675815 42.269940
324   1  0.7900 27.774762 38.545995 51.234019
325   1  0.7900 21.114651  5.483731  6.413624
326   1  0.7900 23.295689  6.353911 15.377703
327   1  0.7900 25.476727  7.224090 24.341782
328   1  0.7900 27.657764  8.094270 33.305861
329   1  0.7900 29.838802  8.964449 42.269940
330   1  0.7900 32.019840  9.834629 51.234019
331   1  0.7900 21.376469 11.226005  6.413624
332   1  0.7900 23.557507 12.096184 15.377703
333   1  0.7900 25.738545 12.966364 24.341782
334   1  0.7900 27.919582 13.836543 33.305861
335   1  0.7900 30.100620 14.706723 42.269940
336   1  0.7900 32.281658 15.576902 51.234019
337   1  0.7900 21.638287 16.968278  6.413624
338   1  0.7900 23.819325 17.838457 15.377703
339   1  0.7900 26.000362 18.708637 24.341782
340   1  0.7900 28.181400 19.578816 33.305861
341   1  0.7900 30.362438 20.448996 42.269940
342   1  0.7900 32.543476 21.319175 51.234019
343   1  0.7900 21.900105 22.710551  6.413624
344   1  0.7900 24.081143 23.580731 15.377703
345   1  0.7900 26.262180 24.450910 24.341782
346   1  0.7900 28.443218 25.321090 33.305861
347   1  0.7900 30.624256 26.191269 42.269940
348   1  0.7900 32.805294 27.061448 51.234019
349   1  0.7900 22.161923 28.452824  6.413624
350   1  0.7900 24.342961 29.323004 15.377703
351   1  0.7900 26.523998 30.193183 24.341782
352   1  0.7900 28.705036 31.063363 33.305861
353   1  0.7900 30.886074 31.933542 42.269940
354   1  0.7900 33.067112 32.803722 51.234019
355   1  0.7900 22.423741 34.195097  6.413624
356   1  0.7900 24.604779 35.065277 15.377703
357   1  0.7900 26.785816 35.935456 24.341782
358   1  0.7900 28.966854 36.805636 33.305861
359   1  0.7900 31.147892 37.675815 42.269940
360   1  0.7900 33.328929 38.545995 51.234019
361   1  0.7900 26.668819  5.483731  6.413624
362   1  0.7900 28.849856  6.353911 15.377703
363   1  0.7900 31.030894  7.224090 24.341782
364   1  0.7900 33.211932  8.094270 33.305861
365   1  0.7900 35.392970  8.964449 42.269940
366   1  0.7900 37.574007  9.834629 51.234019
367   1  0.7900 26.930637 11.226005  6.413624
368   1  0.7900 29.111674 12.096184 15.377703
369   1  0.7900 31.292712 12.966364 24.341782
370   1  0.7900 33.473750 13.836543 33.305861
371   1  0.7900 35.654787 14.706723 42.269940
372   1  0.7900 37.835825 15.576902 51.234019
373   1  0.7900 27.192455 16.968278  6.413624
374   1  0.7900 29.373492 17.838457 15.377703
375   1  0.7900 31.554530 18.708637 24.341782
376   1  0.7900 33.735568 19.578816 33.305861
377   1  0.7900 35.916605 20.448996 42.269940
378   1  0.7900 38.097643 21.319175 51.234019
379   1  0.7900 27.454273 22.710551  6.413624
380   1  0.7900 29.635310 23.580731 15.377703
381   1  0.7900 31.816348 24.450910 24.341782
382   1  0.7900 33.997386 25.321090 33.305861
383   1  0.7900 36.178423 26.191269 42.269940
384   1  0.7900 38.359461 27.061448 51.234019
385   1  0.7900 27.716091 28.452824  6.413624
386   1  0.7900 29.897128 29.323004 15.377703
387   1  0.7900 32.078166 30.193183 24.341782
388   1  0.7900 34.259204 31.063363 33.305861
389   1  0.7900 36.440241 31.933542 42.269940
390   1  0.7900 38.621279 32.803722 51.234019
391   1  0.7900 27.977909 34.195097  6.413624
392   1  0.7900 30.158946 35.065277 15.377703
393   1  0.7900 32.339984 35.935456 24.341782
394   1  0.7900 34.521022 36.805636 33.305861
395   1  0.7900 36.702059 37.675815 42.269940
396   1  0.7900 38.883097 38.545995 51.234019
397   1  0.7900 32.222986  5.483731  6.413624
398   1  0.7900 34.404024  6.353911 15.377703
399   1  0.7900 36.585062  7.224090 24.341782
400   1  0.7900 38.766099  8.094270 33.305861
401   1  0.7900 40.947137  8.964449 42.269940
402   1  0.7900 43.128175  9.834629 51.234019
403   1  0.7900 32.484804 11.226005  6.413624
404   1  0.7900 34.665842 12.096184 15.377703
405   1  0.7900 36.846880 12.966364 24.341782
406   1  0.7900 39.027917 13.836543 33.305861
407   1  0.7900 41.208955 14.706723 42.269940
408   1  0.7900 43.389993 15.576902 51.234019
409   1  0.7900 32.746622 16.968278  6.413624
410   1  0.7900 34.927660 17.838457 15.377703
411   1  0.7900 37.108698 18.708637 24.341782
412   1  0.7900 39.289735 19.578816 33.305861
413   1  0.7900 41.470773 20.448996 42.269940
414   1  0.7900 43.651811 21.319175 51.234019
415   1  0.7900 33.008440 22.710551  6.413624
416   1  0.7900 35.189478 23.580731 15.377703
417   1  0.7900 37.370516 24.450910 24.341782
418   1  0.7900 39.551553 25.321090 33.305861
419   1  0.7900 41.732591 26.191269 42.269940
420   1  0.7900 43.913629 27.061448 51.234019
421   1  0.7900 33.270258 28.452824  6.413624
422   1  0.7900 35.451296 29.323004 15.377703
423   1  0.7900 37.632334 30.193183 24.341782
424   1  0.7900 39.813371 31.063363 33.305861
425   1  0.7900 41.994409 31.933542 42.269940
426   1  0.7900 44.175447 32.803722 51.234019
427   1  0.7900 33.532076 34.195097  6.413624
428   1  0.7900 35.713114 35.065277 15.377703
429   1  0.7900 37.894152 35.935456 24.341782
430   1  0.7900 40.075189 36.805636 33.305861
431   1  0.7900 42.256227 37.675815 42.269940
432   1  0.7900 44.437265 38.545995 51.234019
433   1  0.7900  4.612293  4.224450  0.146689
434   1  0.7900  6.793331  5.094630  9.110768
435   1  0.7900  8.974369  5.964809 18.074848
436   1  0.7900 11.155406  6.834989 27.038927
437   1  0.7900 13.336444  7.705168 36.003006
438   1  0.7900 15.517482  8.575348 44.967085
439   1  0.7900  4.874111  9.966724  0.146689
440   1  0.7900  7.055149 10.836903  9.110768
441   1  0.7900  9.236187 11.707083 18.074848
442   1  0.7900 11.417224 12.577262 27.038927
443   1  0.7900 13.598262 13.447442 36.003006
444   1  0.7900 15.779300 14.317621 44.967085
445   1  0.7900  5.135929 15.708997  0.146689
446   1  0.7900  7.316967 16.579176  9.110768
447   1  0.7900  9.498005 17.449356 18.074848
448   1  0.7900 11.679042 18.319535 27.038927
449   1  0.7900 13.860080 19.189715 36.003006
450   1  0.7900 16.041118 20.059894 44.967085
451   1  0.7900  5.397747 21.451270  0.146689
452   1  0.7900  7.578785 22.321449  9.110768
453   1  0.7900  9.759823 23.191629 18.074848
454   1  0.7900 11.940860 24.061808 27.038927
455   1  0.7900 14.121898 24.931988 36.003006
456   1  0.7900 16.302936 25.802167 44.967085
457   1  0.7900  5.659565 27.193543  0.146689
458   1  0.7900  7.840603 28.063723  9.110768
459   1  0.7900 10.021641 28.933902 18.074848
460   1  0.7900 12.202678 29.804082 27.038927
461   1  0.7900 14.383716 30.674261 36.003006
462   1  0.7900 16.564754 31.544441 44.967085
463   1  0.7900  5.921383 32.935816  0.146689
464   1  0.7900  8.102421 33.805996  9.110768
465   1  0.7900 10.283459 34.676175 18.074848
466   1  0.7900 12.464496 35.546355 27.038927
467   1  0.7900 14.645534 36.416534 36.003006
468   1  0.7900 16.826572 37.286714 44.967085
469   1  0.7900 10.166461  4.224450  0.146689
470   1  0.7900 12.347499  5.094630  9.110768
471   1  0.7900 14.528536  5.964809 18.074848
472   1  0.7900 16.709574  6.834989 27.038927
473   1  0.7900 18.890612  7.705168 36.003006
474   1  0.7900 21.071649  8.575348 44.967085
475   1  0.7900 10.428279  9.966724  0.146689
476   1  0.7900 12.609317 10.836903  9.110768
477   1  0.7900 14.790354 11.707083 18.074848
478   1  0.7900 16.971392 12.577262 27.038927
479   1  0.7900 19.152430 13.447442 36.003006
480   1  0.7900 21.333467 14.317621 44.967085
481   1  0.7900 10.690097 15.708997  0.146689
482   1  0.7900 12.871135 16.579176  9.110768
483   1  0.7900 15.052172 17.449356 18.074848
484   1  0.7900 17.233210 18.319535 27.038927
485   1  0.7900 19.414248 19.189715 36.003006
486   1  0.7900 21.595285 20.059894 44.967085
487   1  0.7900 10.951915 21.451270  0.146689
488   1  0.7900 13.132953 22.321449  9.110768
489   1  0.7900 15.313990 23.191629 18.074848
490   1  0.7900 17.495028 24.061808 27.038927
491   1  0.7900 19.676066 24.931988 36.003006
492   1  0.7900 21.857103 25.802167 44.967085
493   1  0.7900 11.213733 27.193543  0.146689
494   1  0.7900 13.394770 28.063723  9.110768
495   1  0.7900 15.575808 28.933902 18.074848
496   1  0.7900 17.756846 29.804082 27.038927
497   1  0.7900 19.937884 30.674261 36.003006
498   1  0.7900 22.118921 31.544441 44.967085
499   1  0.7900 11.475551 32.935816  0.146689
500   1  0.7900 13.656588 33.805996  9.110768
501   1  0.7900 15.837626 34.676175 18.074848
502   1  0.7900 18.018664 35.546355 27.038927
503   1  0.7900 20.199702 36.416534 36.003006
504   1  0.7900 22.380739 37.286714 44.967085
505   1  0.7900 15.720628  4.224450  0.146689
506   1  0.7900 17.901666  5.094630  9.110768
507   1  0.7900 20.082704  5.964809 18.074848
508   1  0.7900 22.263742  6.834989 27.038927
509   1  0.7900 24.444779  7.705168 36.003006
510   1  0.7900 26.625817  8.575348 44.967085
511   1  0.7900 15.982446  9.966724  0.146689
512   1  0.7900 18.163484 10.836903  9.110768
513   1  0.7900 20.344522 11.707083 18.074848
514   1  0.7900 22.525560 12.577262 27.038927
515   1  0.7900 24.706597 13.447442 36.003006
516   1  0.7900 26.887635 14.317621 44.967085
517   1  0.7900 16.244264 15.708997  0.146689
518   1  0.7900 18.425302 16.579176  9.110768
519   1  0.7900 20.606340 17.449356 18.074848
520   1  0.7900 22.787378 18.319535 27.038927
521   1  0.7900 24.968415 19.189715 36.003006
522   1  0.7900 27.149453 20.059894 44.967085
523   1  0.7900 16.506082 21.451270  0.146689
524   1  0.7900 18.687120 22.321449  9.110768
525   1  0.7900 20.868158 23.191629 18.074848
526   1  0.7900 23.049195 24.061808 27.038927
527   1  0.7900 25.230233 24.931988 36.003006
528   1  0.7900 27.411271 25.802167 44.967085
529   1  0.7900 16.767900 27.193543  0.146689
530   1  0.7900 18.948938 28.063723  9.110768
531   1  0.7900 21.129976 28.933902 18.074848
532   1  0.7900 23.311013 29.804082 27.038927
533   1  0.7900 25.492051 30.674261 36.003006
534   1  0.7900 27.673089 31.544441 44.967085
535   1  0.7900 17.029718 32.935816  0.146689
536   1  0.7900 19.210756 33.805996  9.110768
537   1  0.7900 21.391794 34.676175 18.074848
538   1  0.7900 23.572831 35.546355 27.038927
539   1  0.7900 25.753869 36.416534 36.003006
540   1  0.7900 27.934907 37.286714 44.967085
541   1  0.7900 21.274796  4.224450  0.146689
542   1  0.7900 23.455834  5.094630  9.110768
543   1  0.7900 25.636871  5.964809 18.074848
544   1  0.7900 27.817909  6.834989 27.038927
545   1  0.7900 29.998947  7.705168 36.003006
546   1  0.7900 32.179985  8.575348 44.967085
547   1  0.7900 21.536614  9.966724  0.146689
548   1  0.7900 23.717652 10.836903  9.110768
549   1  0.7900 25.898689 11.707083 18.074848
550   1  0.7900 28.079727 12.577262 27.038927
551   1  0.7900 30.260765 13.447442 36.003006
552   1  0.7900 32.441802 14.317621 44.967085
553   1  0.7900 21.798432 15.708997  0.146689
554   1  0.7900 23.979470 16.579176  9.110768
555   1  0.7900 26.160507 17.449356 18.074848
556   1  0.7900 28.341545 18.319535 27.038927
557   1  0.7900 30.522583 19.189715 36.003006
558   1  0.7900 32.703620 20.059894 44.967085
559   1  0.7900 22.060250 21.451270  0.146689
560   1  0.7900 24.241288 22.321449  9.110768
561   1  0.7900 26.422325 23.191629 18.074848
562   1  0.7900 28.603363 24.061808 27.038927
563   1  0.7900 30.784401 24.931988 36.003006
564   1  0.7900 32.965438 25.802167 44.967085
565   1  0.7900 22.322068 27.193543  0.146689
566   1  0.7900 24.503106 28.063723  9.110768
567   1  0.7900 26.684143 28.933902 18.074848
568   1  0.7900 28.865181 29.804082 27.038927
569   1  0.7900 31.046219 30.674261 36.003006
570   1  0.7900 33.227256 31.544441 44.967085
571   1  0.7900 22.583886 32.935816  0.146689
572   1  0.7900 24.764924 33.805996  9.110768
573   1  0.7900 26.945961 34.676175 18.074848
574   1  0.7900 29.126999 35.546355 27.038927
575   1  0.7900 31.308037 36.416534 36.003006
576   1  0.7900 33.489074 37.286714 44.967085
577   1  0.7900 26.828964  4.224450  0.146689
578   1  0.7900 29.010001  5.094630  9.110768
579   1  0.7900 31.191039  5.964809 18.074848
580   1  0.7900 33.372077  6.834989 27.038927
581   1  0.7900 35.553114  7.705168 36.003006
582   1  0.7900 37.734152  8.575348 44.967085
583   1  0.7900 27.090782  9.966724  0.146689
584   1  0.7900 29.271819 10.836903  9.110768
585   1  0.7900 31.452857 11.707083 18.074848
586   1  0.7900 33.633895 12.577262 27.038927
587   1  0.7900 35.814932 13.447442 36.003006
588   1  0.7900 37.995970 14.317621 44.967085
589   1  0.7900 27.352600 15.708997  0.146689
590   1  0.7900 29.533637 16.579176  9.110768
591   1  0.7900 31.714675 17.449356 18.074848
592   1  0.7900 33.895713 18.319535 27.038927
593   1  0.7900 36.076750 19.189715 36.003006
594   1  0.7900 38.257788 20.059894 44.967085
595   1  0.7900 27.614418 21.451270  0.146689
596   1  0.7900 29.795455 22.321449  9.110768
597   1  0.7900 31.976493 23.191629 18.074848
598   1  0.7900 34.157531 24.061808 27.038927
599   1  0.7900 36.338568 24.931988 36.003006
600   1  0.7900 38.519606 25.802167 44.967085
601   1  0.7900 27.876236 27.193543  0.146689
602   1  0.7900 30.057273 28.063723  9.110768
603   1  0.7900 32.238311 28.933902 18.074848
604   1  0.7900 34.419349 29.804082 27.038927
605   1  0.7900 36.600386 30.674261 36.003006
606   1  0.7900 38.781424 31.544441 44.967085
607   1  0.7900 28.138054 32.935816  0.146689
608   1  0.7900 30.319091 33.805996  9.110768
609   1  0.7900 32.500129 34.676175 18.074848
610   1  0.7900 34.681167 35.546355 27.038927
611   1  0.7900 36.862204 36.416534 36.003006
612   1  0.7900 39.043242 37.286714 44.967085
613   1  0.7900 32.383131  4.224450  0.146689
614   1  0.7900 34.564169  5.094630  9.110768
615   1  0.7900 36.745207  5.964809 18.074848
616   1  0.7900 38.926244  6.834989 27.038927
617   1  0.7900 41.107282  7.705168 36.003006
618   1  0.7900 43.288320  8.575348 44.967085
619   1  0.7900 32.644949  9.966724  0.146689
620   1  0.7900 34.825987 10.836903  9.110768
621   1  0.7900 37.007025 11.707083 18.074848
622   1  0.7900 39.188062 12.577262 27.038927
623   1  0.7900 41.369100 13.447442 36.003006
624   1  0.7900 43.550138 14.317621 44.967085
625   1  0.7900 32.906767 15.708997  0.146689
626   1  0.7900 35.087805 16.579176  9.110768
627   1  0.7900 37.268843 17.449356 18.074848
628   1  0.7900 39.449880 18.319535 27.038927
629   1  0.7900 41.630918 19.189715 36.003006
630   1  0.7900 43.811956 20.059894 44.967085
631   1  0.7900 33.168585 21.451270  0.146689
632   1  0.7900 35.349623 22.321449  9.110768
633   1  0.7900 37.530661 23.191629 18.074848
634   1  0.7900 39.711698 24.061808 27.038927
635   1  0.7900 41.892736 24.931988 36.003006
636   1  0.7900 44.073774 25.802167 44.967085
637   1  0.7900 33.430403 27.193543  0.146689
638   1  0.7900 35.611441 28.063723  9.110768
639   1  0.7900 37.792479 28.933902 18.074848
640   1  0.7900 39.973516 29.804082 27.038927
641   1  0.7900 42.154554 30.674261 36.003006
642   1  0.7900 44.335592 31.544441 44.967085
643   1  0.7900 33.692221 32.935816  0.146689
644   1  0.7900 35.873259 33.805996  9.110768
645   1  0.7900 38.054297 34.676175 18.074848
646   1  0.7900 40.235334 35.546355 27.038927