Generated by pymatgen.io.lammps.data.LammpsData

5760  atoms

   4  atom types

0.000000 37.842116  xlo xhi
0.000000 34.078072  ylo yhi
0.000000 53.795460  zlo zhi
-18.534996 -1.724976 -11.150760  xy xz yz

Masses

1   6.941000
2  30.973762
3   1.007940
4  14.006700

Atoms

1     1  0.5250   2.276556   7.098646  1.011772
2     1  0.5250   1.845312   4.310956 14.460637
3     1  0.5250   1.414068   1.523266 27.909502
4     1  0.5250   0.982824  -1.264424 41.358367
5     1  0.5250  -2.357193  15.618164  1.011772
6     1  0.5250  -2.788437  12.830474 14.460637
7     1  0.5250  -3.219681  10.042784 27.909502
8     1  0.5250  -3.650925   7.255094 41.358367
9     1  0.5250  -6.990942  24.137682  1.011772
10    1  0.5250  -7.422186  21.349992 14.460637
11    1  0.5250  -7.853430  18.562302 27.909502
12    1  0.5250  -8.284674  15.774612 41.358367
13    1  0.5250 -11.624691  32.657200  1.011772
14    1  0.5250 -12.055935  29.869510 14.460637
15    1  0.5250 -12.487179  27.081820 27.909502
16    1  0.5250 -12.918423  24.294130 41.358367
17    1  0.5250  11.737085   7.098646  1.011772
18    1  0.5250  11.305841   4.310956 14.460637
19    1  0.5250  10.874597   1.523266 27.909502
20    1  0.5250  10.443353  -1.264424 41.358367
21    1  0.5250   7.103336  15.618164  1.011772
22    1  0.5250   6.672092  12.830474 14.460637
23    1  0.5250   6.240848  10.042784 27.909502
24    1  0.5250   5.809604   7.255094 41.358367
25    1  0.5250   2.469587  24.137682  1.011772
26    1  0.5250   2.038343  21.349992 14.460637
27    1  0.5250   1.607099  18.562302 27.909502
28    1  0.5250   1.175855  15.774612 41.358367
29    1  0.5250  -2.164162  32.657200  1.011772
30    1  0.5250  -2.595406  29.869510 14.460637
31    1  0.5250  -3.026650  27.081820 27.909502
32    1  0.5250  -3.457894  24.294130 41.358367
33    1  0.5250  21.197614   7.098646  1.011772
34    1  0.5250  20.766370   4.310956 14.460637
35    1  0.5250  20.335126   1.523266 27.909502
36    1  0.5250  19.903882  -1.264424 41.358367
37    1  0.5250  16.563865  15.618164  1.011772
38    1  0.5250  16.132621  12.830474 14.460637
39    1  0.5250  15.701377  10.042784 27.909502
40    1  0.5250  15.270133   7.255094 41.358367
41    1  0.5250  11.930116  24.137682  1.011772
42    1  0.5250  11.498872  21.349992 14.460637
43    1  0.5250  11.067628  18.562302 27.909502
44    1  0.5250  10.636384  15.774612 41.358367
45    1  0.5250   7.296367  32.657200  1.011772
46    1  0.5250   6.865123  29.869510 14.460637
47    1  0.5250   6.433879  27.081820 27.909502
48    1  0.5250   6.002635  24.294130 41.358367
49    1  0.5250  30.658143   7.098646  1.011772
50    1  0.5250  30.226899   4.310956 14.460637
51    1  0.5250  29.795655   1.523266 27.909502
52    1  0.5250  29.364411  -1.264424 41.358367
53    1  0.5250  26.024394  15.618164  1.011772
54    1  0.5250  25.593150  12.830474 14.460637
55    1  0.5250  25.161906  10.042784 27.909502
56    1  0.5250  24.730662   7.255094 41.358367
57    1  0.5250  21.390645  24.137682  1.011772
58    1  0.5250  20.959401  21.349992 14.460637
59    1  0.5250  20.528157  18.562302 27.909502
60    1  0.5250  20.096913  15.774612 41.358367
61    1  0.5250  16.756896  32.657200  1.011772
62    1  0.5250  16.325652  29.869510 14.460637
63    1  0.5250  15.894408  27.081820 27.909502
64    1  0.5250  15.463164  24.294130 41.358367
65    1  0.5250   2.118980  -1.366818 12.437093
66    1  0.5250   1.687736  -4.154508 25.885958
67    1  0.5250   1.256492  -6.942198 39.334823
68    1  0.5250   0.825248  -9.729888 52.783688
69    1  0.5250  -2.514769   7.152700 12.437093
70    1  0.5250  -2.946013   4.365010 25.885958
71    1  0.5250  -3.377257   1.577320 39.334823
72    1  0.5250  -3.808501  -1.210370 52.783688
73    1  0.5250  -7.148518  15.672218 12.437093
74    1  0.5250  -7.579762  12.884528 25.885958
75    1  0.5250  -8.011006  10.096838 39.334823
76    1  0.5250  -8.442250   7.309148 52.783688
77    1  0.5250 -11.782267  24.191736 12.437093
78    1  0.5250 -12.213511  21.404046 25.885958
79    1  0.5250 -12.644755  18.616356 39.334823
80    1  0.5250 -13.075999  15.828666 52.783688
81    1  0.5250  11.579509  -1.366818 12.437093
82    1  0.5250  11.148265  -4.154508 25.885958
83    1  0.5250  10.717021  -6.942198 39.334823
84    1  0.5250  10.285777  -9.729888 52.783688
85    1  0.5250   6.945760   7.152700 12.437093
86    1  0.5250   6.514516   4.365010 25.885958
87    1  0.5250   6.083272   1.577320 39.334823
88    1  0.5250   5.652028  -1.210370 52.783688
89    1  0.5250   2.312011  15.672218 12.437093
90    1  0.5250   1.880767  12.884528 25.885958
91    1  0.5250   1.449523  10.096838 39.334823
92    1  0.5250   1.018279   7.309148 52.783688
93    1  0.5250  -2.321738  24.191736 12.437093
94    1  0.5250  -2.752982  21.404046 25.885958
95    1  0.5250  -3.184226  18.616356 39.334823
96    1  0.5250  -3.615470  15.828666 52.783688
97    1  0.5250  21.040038  -1.366818 12.437093
98    1  0.5250  20.608794  -4.154508 25.885958
99    1  0.5250  20.177550  -6.942198 39.334823
100   1  0.5250  19.746306  -9.729888 52.783688
101   1  0.5250  16.406289   7.152700 12.437093
102   1  0.5250  15.975045   4.365010 25.885958
103   1  0.5250  15.543801   1.577320 39.334823
104   1  0.5250  15.112557  -1.210370 52.783688
105   1  0.5250  11.772540  15.672218 12.437093
106   1  0.5250  11.341296  12.884528 25.885958
107   1  0.5250  10.910052  10.096838 39.334823
108   1  0.5250  10.478808   7.309148 52.783688
109   1  0.5250   7.138791  24.191736 12.437093
110   1  0.5250   6.707547  21.404046 25.885958
111   1  0.5250   6.276303  18.616356 39.334823
112   1  0.5250   5.845059  15.828666 52.783688
113   1  0.5250  30.500567  -1.366818 12.437093
114   1  0.5250  30.069323  -4.154508 25.885958
115   1  0.5250  29.638079  -6.942198 39.334823
116   1  0.5250  29.206835  -9.729888 52.783688
117   1  0.5250  25.866818   7.152700 12.437093
118   1  0.5250  25.435574   4.365010 25.885958
119   1  0.5250  25.004330   1.577320 39.334823
120   1  0.5250  24.573086  -1.210370 52.783688
121   1  0.5250  21.233069  15.672218 12.437093
122   1  0.5250  20.801825  12.884528 25.885958
123   1  0.5250  20.370581  10.096838 39.334823
124   1  0.5250  19.939337   7.309148 52.783688
125   1  0.5250  16.599320  24.191736 12.437093
126   1  0.5250  16.168076  21.404046 25.885958
127   1  0.5250  15.736832  18.616356 39.334823
128   1  0.5250  15.305588  15.828666 52.783688
129   1  0.5250  -2.587814   5.092674  5.020676
130   1  0.5250  -3.019058   2.304984 18.469541
131   1  0.5250  -3.450302  -0.482706 31.918406
132   1  0.5250  -3.881546  -3.270396 45.367271
133   1  0.5250  -7.221563  13.612192  5.020676
134   1  0.5250  -7.652807  10.824502 18.469541
135   1  0.5250  -8.084051   8.036812 31.918406
136   1  0.5250  -8.515295   5.249122 45.367271
137   1  0.5250 -11.855312  22.131710  5.020676
138   1  0.5250 -12.286556  19.344020 18.469541
139   1  0.5250 -12.717800  16.556330 31.918406
140   1  0.5250 -13.149044  13.768640 45.367271
141   1  0.5250 -16.489061  30.651228  5.020676
142   1  0.5250 -16.920305  27.863538 18.469541
143   1  0.5250 -17.351549  25.075848 31.918406
144   1  0.5250 -17.782793  22.288158 45.367271
145   1  0.5250   6.872715   5.092674  5.020676
146   1  0.5250   6.441471   2.304984 18.469541
147   1  0.5250   6.010227  -0.482706 31.918406
148   1  0.5250   5.578983  -3.270396 45.367271
149   1  0.5250   2.238966  13.612192  5.020676
150   1  0.5250   1.807722  10.824502 18.469541
151   1  0.5250   1.376478   8.036812 31.918406
152   1  0.5250   0.945234   5.249122 45.367271
153   1  0.5250  -2.394783  22.131710  5.020676
154   1  0.5250  -2.826027  19.344020 18.469541
155   1  0.5250  -3.257271  16.556330 31.918406
156   1  0.5250  -3.688515  13.768640 45.367271
157   1  0.5250  -7.028532  30.651228  5.020676
158   1  0.5250  -7.459776  27.863538 18.469541
159   1  0.5250  -7.891020  25.075848 31.918406
160   1  0.5250  -8.322264  22.288158 45.367271
161   1  0.5250  16.333244   5.092674  5.020676
162   1  0.5250  15.902000   2.304984 18.469541
163   1  0.5250  15.470756  -0.482706 31.918406
164   1  0.5250  15.039512  -3.270396 45.367271
165   1  0.5250  11.699495  13.612192  5.020676
166   1  0.5250  11.268251  10.824502 18.469541
167   1  0.5250  10.837007   8.036812 31.918406
168   1  0.5250  10.405763   5.249122 45.367271
169   1  0.5250   7.065746  22.131710  5.020676
170   1  0.5250   6.634502  19.344020 18.469541
171   1  0.5250   6.203258  16.556330 31.918406
172   1  0.5250   5.772014  13.768640 45.367271
173   1  0.5250   2.431997  30.651228  5.020676
174   1  0.5250   2.000753  27.863538 18.469541
175   1  0.5250   1.569509  25.075848 31.918406
176   1  0.5250   1.138265  22.288158 45.367271
177   1  0.5250  25.793773   5.092674  5.020676
178   1  0.5250  25.362529   2.304984 18.469541
179   1  0.5250  24.931285  -0.482706 31.918406
180   1  0.5250  24.500041  -3.270396 45.367271
181   1  0.5250  21.160024  13.612192  5.020676
182   1  0.5250  20.728780  10.824502 18.469541
183   1  0.5250  20.297536   8.036812 31.918406
184   1  0.5250  19.866292   5.249122 45.367271
185   1  0.5250  16.526275  22.131710  5.020676
186   1  0.5250  16.095031  19.344020 18.469541
187   1  0.5250  15.663787  16.556330 31.918406
188   1  0.5250  15.232543  13.768640 45.367271
189   1  0.5250  11.892526  30.651228  5.020676
190   1  0.5250  11.461282  27.863538 18.469541
191   1  0.5250  11.030038  25.075848 31.918406
192   1  0.5250  10.598794  22.288158 45.367271
193   1  0.5250   6.983350   0.639154  8.428189
194   1  0.5250   6.552106  -2.148536 21.877054
195   1  0.5250   6.120862  -4.936226 35.325919
196   1  0.5250   5.689618  -7.723916 48.774784
197   1  0.5250   2.349601   9.158672  8.428189
198   1  0.5250   1.918357   6.370982 21.877054
199   1  0.5250   1.487113   3.583292 35.325919
200   1  0.5250   1.055869   0.795602 48.774784
201   1  0.5250  -2.284148  17.678190  8.428189
202   1  0.5250  -2.715392  14.890500 21.877054
203   1  0.5250  -3.146636  12.102810 35.325919
204   1  0.5250  -3.577880   9.315120 48.774784
205   1  0.5250  -6.917897  26.197708  8.428189
206   1  0.5250  -7.349141  23.410018 21.877054
207   1  0.5250  -7.780385  20.622328 35.325919
208   1  0.5250  -8.211629  17.834638 48.774784
209   1  0.5250  16.443879   0.639154  8.428189
210   1  0.5250  16.012635  -2.148536 21.877054
211   1  0.5250  15.581391  -4.936226 35.325919
212   1  0.5250  15.150147  -7.723916 48.774784
213   1  0.5250  11.810130   9.158672  8.428189
214   1  0.5250  11.378886   6.370982 21.877054
215   1  0.5250  10.947642   3.583292 35.325919
216   1  0.5250  10.516398   0.795602 48.774784
217   1  0.5250   7.176381  17.678190  8.428189
218   1  0.5250   6.745137  14.890500 21.877054
219   1  0.5250   6.313893  12.102810 35.325919
220   1  0.5250   5.882649   9.315120 48.774784
221   1  0.5250   2.542632  26.197708  8.428189
222   1  0.5250   2.111388  23.410018 21.877054
223   1  0.5250   1.680144  20.622328 35.325919
224   1  0.5250   1.248900  17.834638 48.774784
225   1  0.5250  25.904408   0.639154  8.428189
226   1  0.5250  25.473164  -2.148536 21.877054
227   1  0.5250  25.041920  -4.936226 35.325919
228   1  0.5250  24.610676  -7.723916 48.774784
229   1  0.5250  21.270659   9.158672  8.428189
230   1  0.5250  20.839415   6.370982 21.877054
231   1  0.5250  20.408171   3.583292 35.325919
232   1  0.5250  19.976927   0.795602 48.774784
233   1  0.5250  16.636910  17.678190  8.428189
234   1  0.5250  16.205666  14.890500 21.877054
235   1  0.5250  15.774422  12.102810 35.325919
236   1  0.5250  15.343178   9.315120 48.774784
237   1  0.5250  12.003161  26.197708  8.428189
238   1  0.5250  11.571917  23.410018 21.877054
239   1  0.5250  11.140673  20.622328 35.325919
240   1  0.5250  10.709429  17.834638 48.774784
241   1  0.5250  35.364937   0.639154  8.428189
242   1  0.5250  34.933693  -2.148536 21.877054
243   1  0.5250  34.502449  -4.936226 35.325919
244   1  0.5250  34.071205  -7.723916 48.774784
245   1  0.5250  30.731188   9.158672  8.428189
246   1  0.5250  30.299944   6.370982 21.877054
247   1  0.5250  29.868700   3.583292 35.325919
248   1  0.5250  29.437456   0.795602 48.774784
249   1  0.5250  26.097439  17.678190  8.428189
250   1  0.5250  25.666195  14.890500 21.877054
251   1  0.5250  25.234951  12.102810 35.325919
252   1  0.5250  24.803707   9.315120 48.774784
253   1  0.5250  21.463690  26.197708  8.428189
254   1  0.5250  21.032446  23.410018 21.877054
255   1  0.5250  20.601202  20.622328 35.325919
256   1  0.5250  20.169958  17.834638 48.774784
257   2  1.5750   2.066041   0.686522  5.116782
258   2  1.5750   1.634797  -2.101168 18.565647
259   2  1.5750   1.203553  -4.888858 32.014512
260   2  1.5750   0.772309  -7.676548 45.463377
261   2  1.5750  -2.567708   9.206040  5.116782
262   2  1.5750  -2.998952   6.418350 18.565647
263   2  1.5750  -3.430196   3.630660 32.014512
264   2  1.5750  -3.861440   0.842970 45.463377
265   2  1.5750  -7.201457  17.725558  5.116782
266   2  1.5750  -7.632701  14.937868 18.565647
267   2  1.5750  -8.063945  12.150178 32.014512
268   2  1.5750  -8.495189   9.362488 45.463377
269   2  1.5750 -11.835206  26.245076  5.116782
270   2  1.5750 -12.266450  23.457386 18.565647
271   2  1.5750 -12.697694  20.669696 32.014512
272   2  1.5750 -13.128938  17.882006 45.463377
273   2  1.5750  11.526570   0.686522  5.116782
274   2  1.5750  11.095326  -2.101168 18.565647
275   2  1.5750  10.664082  -4.888858 32.014512
276   2  1.5750  10.232838  -7.676548 45.463377
277   2  1.5750   6.892821   9.206040  5.116782
278   2  1.5750   6.461577   6.418350 18.565647
279   2  1.5750   6.030333   3.630660 32.014512
280   2  1.5750   5.599089   0.842970 45.463377
281   2  1.5750   2.259072  17.725558  5.116782
282   2  1.5750   1.827828  14.937868 18.565647
283   2  1.5750   1.396584  12.150178 32.014512
284   2  1.5750   0.965340   9.362488 45.463377
285   2  1.5750  -2.374677  26.245076  5.116782
286   2  1.5750  -2.805921  23.457386 18.565647
287   2  1.5750  -3.237165  20.669696 32.014512
288   2  1.5750  -3.668409  17.882006 45.463377
289   2  1.5750  20.987099   0.686522  5.116782
290   2  1.5750  20.555855  -2.101168 18.565647
291   2  1.5750  20.124611  -4.888858 32.014512
292   2  1.5750  19.693367  -7.676548 45.463377
293   2  1.5750  16.353350   9.206040  5.116782
294   2  1.5750  15.922106   6.418350 18.565647
295   2  1.5750  15.490862   3.630660 32.014512
296   2  1.5750  15.059618   0.842970 45.463377
297   2  1.5750  11.719601  17.725558  5.116782
298   2  1.5750  11.288357  14.937868 18.565647
299   2  1.5750  10.857113  12.150178 32.014512
300   2  1.5750  10.425869   9.362488 45.463377
301   2  1.5750   7.085852  26.245076  5.116782
302   2  1.5750   6.654608  23.457386 18.565647
303   2  1.5750   6.223364  20.669696 32.014512
304   2  1.5750   5.792120  17.882006 45.463377
305   2  1.5750  30.447628   0.686522  5.116782
306   2  1.5750  30.016384  -2.101168 18.565647
307   2  1.5750  29.585140  -4.888858 32.014512
308   2  1.5750  29.153896  -7.676548 45.463377
309   2  1.5750  25.813879   9.206040  5.116782
310   2  1.5750  25.382635   6.418350 18.565647
311   2  1.5750  24.951391   3.630660 32.014512
312   2  1.5750  24.520147   0.842970 45.463377
313   2  1.5750  21.180130  17.725558  5.116782
314   2  1.5750  20.748886  14.937868 18.565647
315   2  1.5750  20.317642  12.150178 32.014512
316   2  1.5750  19.886398   9.362488 45.463377
317   2  1.5750  16.546381  26.245076  5.116782
318   2  1.5750  16.115137  23.457386 18.565647
319   2  1.5750  15.683893  20.669696 32.014512
320   2  1.5750  15.252649  17.882006 45.463377
321   2  1.5750   2.329495   5.045306  8.332083
322   2  1.5750   1.898251   2.257616 21.780948
323   2  1.5750   1.467007  -0.530074 35.229813
324   2  1.5750   1.035763  -3.317764 48.678678
325   2  1.5750  -2.304254  13.564824  8.332083
326   2  1.5750  -2.735498  10.777134 21.780948
327   2  1.5750  -3.166742   7.989444 35.229813
328   2  1.5750  -3.597986   5.201754 48.678678
329   2  1.5750  -6.938003  22.084342  8.332083
330   2  1.5750  -7.369247  19.296652 21.780948
331   2  1.5750  -7.800491  16.508962 35.229813
332   2  1.5750  -8.231735  13.721272 48.678678
333   2  1.5750 -11.571752  30.603860  8.332083
334   2  1.5750 -12.002996  27.816170 21.780948
335   2  1.5750 -12.434240  25.028480 35.229813
336   2  1.5750 -12.865484  22.240790 48.678678
337   2  1.5750  11.790024   5.045306  8.332083
338   2  1.5750  11.358780   2.257616 21.780948
339   2  1.5750  10.927536  -0.530074 35.229813
340   2  1.5750  10.496292  -3.317764 48.678678
341   2  1.5750   7.156275  13.564824  8.332083
342   2  1.5750   6.725031  10.777134 21.780948
343   2  1.5750   6.293787   7.989444 35.229813
344   2  1.5750   5.862543   5.201754 48.678678
345   2  1.5750   2.522526  22.084342  8.332083
346   2  1.5750   2.091282  19.296652 21.780948
347   2  1.5750   1.660038  16.508962 35.229813
348   2  1.5750   1.228794  13.721272 48.678678
349   2  1.5750  -2.111223  30.603860  8.332083
350   2  1.5750  -2.542467  27.816170 21.780948
351   2  1.5750  -2.973711  25.028480 35.229813
352   2  1.5750  -3.404955  22.240790 48.678678
353   2  1.5750  21.250553   5.045306  8.332083
354   2  1.5750  20.819309   2.257616 21.780948
355   2  1.5750  20.388065  -0.530074 35.229813
356   2  1.5750  19.956821  -3.317764 48.678678
357   2  1.5750  16.616804  13.564824  8.332083
358   2  1.5750  16.185560  10.777134 21.780948
359   2  1.5750  15.754316   7.989444 35.229813
360   2  1.5750  15.323072   5.201754 48.678678
361   2  1.5750  11.983055  22.084342  8.332083
362   2  1.5750  11.551811  19.296652 21.780948
363   2  1.5750  11.120567  16.508962 35.229813
364   2  1.5750  10.689323  13.721272 48.678678
365   2  1.5750   7.349306  30.603860  8.332083
366   2  1.5750   6.918062  27.816170 21.780948
367   2  1.5750   6.486818  25.028480 35.229813
368   2  1.5750   6.055574  22.240790 48.678678
369   2  1.5750  30.711082   5.045306  8.332083
370   2  1.5750  30.279838   2.257616 21.780948
371   2  1.5750  29.848594  -0.530074 35.229813
372   2  1.5750  29.417350  -3.317764 48.678678
373   2  1.5750  26.077333  13.564824  8.332083
374   2  1.5750  25.646089  10.777134 21.780948
375   2  1.5750  25.214845   7.989444 35.229813
376   2  1.5750  24.783601   5.201754 48.678678
377   2  1.5750  21.443584  22.084342  8.332083
378   2  1.5750  21.012340  19.296652 21.780948
379   2  1.5750  20.581096  16.508962 35.229813
380   2  1.5750  20.149852  13.721272 48.678678
381   2  1.5750  16.809835  30.603860  8.332083
382   2  1.5750  16.378591  27.816170 21.780948
383   2  1.5750  15.947347  25.028480 35.229813
384   2  1.5750  15.516103  22.240790 48.678678
385   2  1.5750   1.293153   2.517748  6.147570
386   2  1.5750   0.861909  -0.269942 19.596435
387   2  1.5750   0.430665  -3.057632 33.045300
388   2  1.5750  -0.000579  -5.845322 46.494165
389   2  1.5750  -3.340596  11.037266  6.147570
390   2  1.5750  -3.771840   8.249576 19.596435
391   2  1.5750  -4.203084   5.461886 33.045300
392   2  1.5750  -4.634328   2.674196 46.494165
393   2  1.5750  -7.974345  19.556784  6.147570
394   2  1.5750  -8.405589  16.769094 19.596435
395   2  1.5750  -8.836833  13.981404 33.045300
396   2  1.5750  -9.268077  11.193714 46.494165
397   2  1.5750 -12.608094  28.076302  6.147570
398   2  1.5750 -13.039338  25.288612 19.596435
399   2  1.5750 -13.470582  22.500922 33.045300
400   2  1.5750 -13.901826  19.713232 46.494165
401   2  1.5750  10.753682   2.517748  6.147570
402   2  1.5750  10.322438  -0.269942 19.596435
403   2  1.5750   9.891194  -3.057632 33.045300
404   2  1.5750   9.459950  -5.845322 46.494165
405   2  1.5750   6.119933  11.037266  6.147570
406   2  1.5750   5.688689   8.249576 19.596435
407   2  1.5750   5.257445   5.461886 33.045300
408   2  1.5750   4.826201   2.674196 46.494165
409   2  1.5750   1.486184  19.556784  6.147570
410   2  1.5750   1.054940  16.769094 19.596435
411   2  1.5750   0.623696  13.981404 33.045300
412   2  1.5750   0.192452  11.193714 46.494165
413   2  1.5750  -3.147565  28.076302  6.147570
414   2  1.5750  -3.578809  25.288612 19.596435
415   2  1.5750  -4.010053  22.500922 33.045300
416   2  1.5750  -4.441297  19.713232 46.494165
417   2  1.5750  20.214211   2.517748  6.147570
418   2  1.5750  19.782967  -0.269942 19.596435
419   2  1.5750  19.351723  -3.057632 33.045300
420   2  1.5750  18.920479  -5.845322 46.494165
421   2  1.5750  15.580462  11.037266  6.147570
422   2  1.5750  15.149218   8.249576 19.596435
423   2  1.5750  14.717974   5.461886 33.045300
424   2  1.5750  14.286730   2.674196 46.494165
425   2  1.5750  10.946713  19.556784  6.147570
426   2  1.5750  10.515469  16.769094 19.596435
427   2  1.5750  10.084225  13.981404 33.045300
428   2  1.5750   9.652981  11.193714 46.494165
429   2  1.5750   6.312964  28.076302  6.147570
430   2  1.5750   5.881720  25.288612 19.596435
431   2  1.5750   5.450476  22.500922 33.045300
432   2  1.5750   5.019232  19.713232 46.494165
433   2  1.5750  29.674740   2.517748  6.147570
434   2  1.5750  29.243496  -0.269942 19.596435
435   2  1.5750  28.812252  -3.057632 33.045300
436   2  1.5750  28.381008  -5.845322 46.494165
437   2  1.5750  25.040991  11.037266  6.147570
438   2  1.5750  24.609747   8.249576 19.596435
439   2  1.5750  24.178503   5.461886 33.045300
440   2  1.5750  23.747259   2.674196 46.494165
441   2  1.5750  20.407242  19.556784  6.147570
442   2  1.5750  19.975998  16.769094 19.596435
443   2  1.5750  19.544754  13.981404 33.045300
444   2  1.5750  19.113510  11.193714 46.494165
445   2  1.5750  15.773493  28.076302  6.147570
446   2  1.5750  15.342249  25.288612 19.596435
447   2  1.5750  14.911005  22.500922 33.045300
448   2  1.5750  14.479761  19.713232 46.494165
449   2  1.5750   3.102383   3.214080  7.301295
450   2  1.5750   2.671139   0.426390 20.750160
451   2  1.5750   2.239895  -2.361300 34.199025
452   2  1.5750   1.808651  -5.148990 47.647890
453   2  1.5750  -1.531366  11.733598  7.301295
454   2  1.5750  -1.962610   8.945908 20.750160
455   2  1.5750  -2.393854   6.158218 34.199025
456   2  1.5750  -2.825098   3.370528 47.647890
457   2  1.5750  -6.165115  20.253116  7.301295
458   2  1.5750  -6.596359  17.465426 20.750160
459   2  1.5750  -7.027603  14.677736 34.199025
460   2  1.5750  -7.458847  11.890046 47.647890
461   2  1.5750 -10.798864  28.772634  7.301295
462   2  1.5750 -11.230108  25.984944 20.750160
463   2  1.5750 -11.661352  23.197254 34.199025
464   2  1.5750 -12.092596  20.409564 47.647890
465   2  1.5750  12.562912   3.214080  7.301295
466   2  1.5750  12.131668   0.426390 20.750160
467   2  1.5750  11.700424  -2.361300 34.199025
468   2  1.5750  11.269180  -5.148990 47.647890
469   2  1.5750   7.929163  11.733598  7.301295
470   2  1.5750   7.497919   8.945908 20.750160
471   2  1.5750   7.066675   6.158218 34.199025
472   2  1.5750   6.635431   3.370528 47.647890
473   2  1.5750   3.295414  20.253116  7.301295
474   2  1.5750   2.864170  17.465426 20.750160
475   2  1.5750   2.432926  14.677736 34.199025
476   2  1.5750   2.001682  11.890046 47.647890
477   2  1.5750  -1.338335  28.772634  7.301295
478   2  1.5750  -1.769579  25.984944 20.750160
479   2  1.5750  -2.200823  23.197254 34.199025
480   2  1.5750  -2.632067  20.409564 47.647890
481   2  1.5750  22.023441   3.214080  7.301295
482   2  1.5750  21.592197   0.426390 20.750160
483   2  1.5750  21.160953  -2.361300 34.199025
484   2  1.5750  20.729709  -5.148990 47.647890
485   2  1.5750  17.389692  11.733598  7.301295
486   2  1.5750  16.958448   8.945908 20.750160
487   2  1.5750  16.527204   6.158218 34.199025
488   2  1.5750  16.095960   3.370528 47.647890
489   2  1.5750  12.755943  20.253116  7.301295
490   2  1.5750  12.324699  17.465426 20.750160
491   2  1.5750  11.893455  14.677736 34.199025
492   2  1.5750  11.462211  11.890046 47.647890
493   2  1.5750   8.122194  28.772634  7.301295
494   2  1.5750   7.690950  25.984944 20.750160
495   2  1.5750   7.259706  23.197254 34.199025
496   2  1.5750   6.828462  20.409564 47.647890
497   2  1.5750  31.483970   3.214080  7.301295
498   2  1.5750  31.052726   0.426390 20.750160
499   2  1.5750  30.621482  -2.361300 34.199025
500   2  1.5750  30.190238  -5.148990 47.647890
501   2  1.5750  26.850221  11.733598  7.301295
502   2  1.5750  26.418977   8.945908 20.750160
503   2  1.5750  25.987733   6.158218 34.199025
504   2  1.5750  25.556489   3.370528 47.647890
505   2  1.5750  22.216472  20.253116  7.301295
506   2  1.5750  21.785228  17.465426 20.750160
507   2  1.5750  21.353984  14.677736 34.199025
508   2  1.5750  20.922740  11.890046 47.647890
509   2  1.5750  17.582723  28.772634  7.301295
510   2  1.5750  17.151479  25.984944 20.750160
511   2  1.5750  16.720235  23.197254 34.199025
512   2  1.5750  16.288991  20.409564 47.647890
513   2  1.5750   3.836199   1.377316  4.057899
514   2  1.5750   3.404955  -1.410374 17.506764
515   2  1.5750   2.973711  -4.198064 30.955629
516   2  1.5750   2.542467  -6.985754 44.404494
517   2  1.5750  -0.797550   9.896834  4.057899
518   2  1.5750  -1.228794   7.109144 17.506764
519   2  1.5750  -1.660038   4.321454 30.955629
520   2  1.5750  -2.091282   1.533764 44.404494
521   2  1.5750  -5.431299  18.416352  4.057899
522   2  1.5750  -5.862543  15.628662 17.506764
523   2  1.5750  -6.293787  12.840972 30.955629
524   2  1.5750  -6.725031  10.053282 44.404494
525   2  1.5750 -10.065048  26.935870  4.057899
526   2  1.5750 -10.496292  24.148180 17.506764
527   2  1.5750 -10.927536  21.360490 30.955629
528   2  1.5750 -11.358780  18.572800 44.404494
529   2  1.5750  13.296728   1.377316  4.057899
530   2  1.5750  12.865484  -1.410374 17.506764
531   2  1.5750  12.434240  -4.198064 30.955629
532   2  1.5750  12.002996  -6.985754 44.404494
533   2  1.5750   8.662979   9.896834  4.057899
534   2  1.5750   8.231735   7.109144 17.506764
535   2  1.5750   7.800491   4.321454 30.955629
536   2  1.5750   7.369247   1.533764 44.404494
537   2  1.5750   4.029230  18.416352  4.057899
538   2  1.5750   3.597986  15.628662 17.506764
539   2  1.5750   3.166742  12.840972 30.955629
540   2  1.5750   2.735498  10.053282 44.404494
541   2  1.5750  -0.604519  26.935870  4.057899
542   2  1.5750  -1.035763  24.148180 17.506764
543   2  1.5750  -1.467007  21.360490 30.955629
544   2  1.5750  -1.898251  18.572800 44.404494
545   2  1.5750  22.757257   1.377316  4.057899
546   2  1.5750  22.326013  -1.410374 17.506764
547   2  1.5750  21.894769  -4.198064 30.955629
548   2  1.5750  21.463525  -6.985754 44.404494
549   2  1.5750  18.123508   9.896834  4.057899
550   2  1.5750  17.692264   7.109144 17.506764
551   2  1.5750  17.261020   4.321454 30.955629
552   2  1.5750  16.829776   1.533764 44.404494
553   2  1.5750  13.489759  18.416352  4.057899
554   2  1.5750  13.058515  15.628662 17.506764
555   2  1.5750  12.627271  12.840972 30.955629
556   2  1.5750  12.196027  10.053282 44.404494
557   2  1.5750   8.856010  26.935870  4.057899
558   2  1.5750   8.424766  24.148180 17.506764
559   2  1.5750   7.993522  21.360490 30.955629
560   2  1.5750   7.562278  18.572800 44.404494
561   2  1.5750  32.217786   1.377316  4.057899
562   2  1.5750  31.786542  -1.410374 17.506764
563   2  1.5750  31.355298  -4.198064 30.955629
564   2  1.5750  30.924054  -6.985754 44.404494
565   2  1.5750  27.584037   9.896834  4.057899
566   2  1.5750  27.152793   7.109144 17.506764
567   2  1.5750  26.721549   4.321454 30.955629
568   2  1.5750  26.290305   1.533764 44.404494
569   2  1.5750  22.950288  18.416352  4.057899
570   2  1.5750  22.519044  15.628662 17.506764
571   2  1.5750  22.087800  12.840972 30.955629
572   2  1.5750  21.656556  10.053282 44.404494
573   2  1.5750  18.316539  26.935870  4.057899
574   2  1.5750  17.885295  24.148180 17.506764
575   2  1.5750  17.454051  21.360490 30.955629
576   2  1.5750  17.022807  18.572800 44.404494
577   2  1.5750   0.559337   4.354512  9.390966
578   2  1.5750   0.128093   1.566822 22.839831
579   2  1.5750  -0.303151  -1.220868 36.288696
580   2  1.5750  -0.734395  -4.008558 49.737561
581   2  1.5750  -4.074412  12.874030  9.390966
582   2  1.5750  -4.505656  10.086340 22.839831
583   2  1.5750  -4.936900   7.298650 36.288696
584   2  1.5750  -5.368144   4.510960 49.737561
585   2  1.5750  -8.708161  21.393548  9.390966
586   2  1.5750  -9.139405  18.605858 22.839831
587   2  1.5750  -9.570649  15.818168 36.288696
588   2  1.5750 -10.001893  13.030478 49.737561
589   2  1.5750 -13.341910  29.913066  9.390966
590   2  1.5750 -13.773154  27.125376 22.839831
591   2  1.5750 -14.204398  24.337686 36.288696
592   2  1.5750 -14.635642  21.549996 49.737561
593   2  1.5750  10.019866   4.354512  9.390966
594   2  1.5750   9.588622   1.566822 22.839831
595   2  1.5750   9.157378  -1.220868 36.288696
596   2  1.5750   8.726134  -4.008558 49.737561
597   2  1.5750   5.386117  12.874030  9.390966
598   2  1.5750   4.954873  10.086340 22.839831
599   2  1.5750   4.523629   7.298650 36.288696
600   2  1.5750   4.092385   4.510960 49.737561
601   2  1.5750   0.752368  21.393548  9.390966
602   2  1.5750   0.321124  18.605858 22.839831
603   2  1.5750  -0.110120  15.818168 36.288696
604   2  1.5750  -0.541364  13.030478 49.737561
605   2  1.5750  -3.881381  29.913066  9.390966
606   2  1.5750  -4.312625  27.125376 22.839831
607   2  1.5750  -4.743869  24.337686 36.288696
608   2  1.5750  -5.175113  21.549996 49.737561
609   2  1.5750  19.480395   4.354512  9.390966
610   2  1.5750  19.049151   1.566822 22.839831
611   2  1.5750  18.617907  -1.220868 36.288696
612   2  1.5750  18.186663  -4.008558 49.737561
613   2  1.5750  14.846646  12.874030  9.390966
614   2  1.5750  14.415402  10.086340 22.839831
615   2  1.5750  13.984158   7.298650 36.288696
616   2  1.5750  13.552914   4.510960 49.737561
617   2  1.5750  10.212897  21.393548  9.390966
618   2  1.5750   9.781653  18.605858 22.839831
619   2  1.5750   9.350409  15.818168 36.288696