Generated by pymatgen.io.lammps.data.LammpsData

4000  atoms

   4  atom types

0.000000 37.921542  xlo xhi
0.000000 37.813515  ylo yhi
0.000000 32.592855  zlo zhi
-2.860237 17.530894 18.906933  xy xz yz

Masses

1   6.941000
2  54.938045
3  72.640000
4  15.999400

Atoms

1     1  0.5250  4.565119  6.298030  4.886301
2     1  0.5250  8.071298 10.079417 11.404872
3     1  0.5250 11.577477 13.860803 17.923443
4     1  0.5250 15.083656 17.642190 24.442014
5     1  0.5250 18.589834 21.423577 30.960585
6     1  0.5250  3.993072 13.860733  4.886301
7     1  0.5250  7.499251 17.642120 11.404872
8     1  0.5250 11.005429 21.423506 17.923443
9     1  0.5250 14.511608 25.204893 24.442014
10    1  0.5250 18.017787 28.986280 30.960585
11    1  0.5250  3.421025 21.423436  4.886301
12    1  0.5250  6.927203 25.204822 11.404872
13    1  0.5250 10.433382 28.986209 17.923443
14    1  0.5250 13.939561 32.767596 24.442014
15    1  0.5250 17.445739 36.548983 30.960585
16    1  0.5250  2.848977 28.986139  4.886301
17    1  0.5250  6.355156 32.767525 11.404872
18    1  0.5250  9.861335 36.548912 17.923443
19    1  0.5250 13.367513 40.330299 24.442014
20    1  0.5250 16.873692 44.111685 30.960585
21    1  0.5250  2.276930 36.548842  4.886301
22    1  0.5250  5.783109 40.330228 11.404872
23    1  0.5250  9.289287 44.111615 17.923443
24    1  0.5250 12.795466 47.893002 24.442014
25    1  0.5250 16.301645 51.674388 30.960585
26    1  0.5250 12.149428  6.298030  4.886301
27    1  0.5250 15.655607 10.079417 11.404872
28    1  0.5250 19.161785 13.860803 17.923443
29    1  0.5250 22.667964 17.642190 24.442014
30    1  0.5250 26.174143 21.423577 30.960585
31    1  0.5250 11.577381 13.860733  4.886301
32    1  0.5250 15.083559 17.642120 11.404872
33    1  0.5250 18.589738 21.423506 17.923443
34    1  0.5250 22.095917 25.204893 24.442014
35    1  0.5250 25.602095 28.986280 30.960585
36    1  0.5250 11.005333 21.423436  4.886301
37    1  0.5250 14.511512 25.204822 11.404872
38    1  0.5250 18.017691 28.986209 17.923443
39    1  0.5250 21.523869 32.767596 24.442014
40    1  0.5250 25.030048 36.548983 30.960585
41    1  0.5250 10.433286 28.986139  4.886301
42    1  0.5250 13.939464 32.767525 11.404872
43    1  0.5250 17.445643 36.548912 17.923443
44    1  0.5250 20.951822 40.330299 24.442014
45    1  0.5250 24.458001 44.111685 30.960585
46    1  0.5250  9.861238 36.548842  4.886301
47    1  0.5250 13.367417 40.330228 11.404872
48    1  0.5250 16.873596 44.111615 17.923443
49    1  0.5250 20.379774 47.893002 24.442014
50    1  0.5250 23.885953 51.674388 30.960585
51    1  0.5250 19.733736  6.298030  4.886301
52    1  0.5250 23.239915 10.079417 11.404872
53    1  0.5250 26.746094 13.860803 17.923443
54    1  0.5250 30.252273 17.642190 24.442014
55    1  0.5250 33.758451 21.423577 30.960585
56    1  0.5250 19.161689 13.860733  4.886301
57    1  0.5250 22.667868 17.642120 11.404872
58    1  0.5250 26.174046 21.423506 17.923443
59    1  0.5250 29.680225 25.204893 24.442014
60    1  0.5250 33.186404 28.986280 30.960585
61    1  0.5250 18.589642 21.423436  4.886301
62    1  0.5250 22.095820 25.204822 11.404872
63    1  0.5250 25.601999 28.986209 17.923443
64    1  0.5250 29.108178 32.767596 24.442014
65    1  0.5250 32.614356 36.548983 30.960585
66    1  0.5250 18.017594 28.986139  4.886301
67    1  0.5250 21.523773 32.767525 11.404872
68    1  0.5250 25.029952 36.548912 17.923443
69    1  0.5250 28.536130 40.330299 24.442014
70    1  0.5250 32.042309 44.111685 30.960585
71    1  0.5250 17.445547 36.548842  4.886301
72    1  0.5250 20.951726 40.330228 11.404872
73    1  0.5250 24.457904 44.111615 17.923443
74    1  0.5250 27.964083 47.893002 24.442014
75    1  0.5250 31.470262 51.674388 30.960585
76    1  0.5250 27.318045  6.298030  4.886301
77    1  0.5250 30.824224 10.079417 11.404872
78    1  0.5250 34.330402 13.860803 17.923443
79    1  0.5250 37.836581 17.642190 24.442014
80    1  0.5250 41.342760 21.423577 30.960585
81    1  0.5250 26.745998 13.860733  4.886301
82    1  0.5250 30.252176 17.642120 11.404872
83    1  0.5250 33.758355 21.423506 17.923443
84    1  0.5250 37.264534 25.204893 24.442014
85    1  0.5250 40.770712 28.986280 30.960585
86    1  0.5250 26.173950 21.423436  4.886301
87    1  0.5250 29.680129 25.204822 11.404872
88    1  0.5250 33.186308 28.986209 17.923443
89    1  0.5250 36.692486 32.767596 24.442014
90    1  0.5250 40.198665 36.548983 30.960585
91    1  0.5250 25.601903 28.986139  4.886301
92    1  0.5250 29.108081 32.767525 11.404872
93    1  0.5250 32.614260 36.548912 17.923443
94    1  0.5250 36.120439 40.330299 24.442014
95    1  0.5250 39.626618 44.111685 30.960585
96    1  0.5250 25.029855 36.548842  4.886301
97    1  0.5250 28.536034 40.330228 11.404872
98    1  0.5250 32.042213 44.111615 17.923443
99    1  0.5250 35.548391 47.893002 24.442014
100   1  0.5250 39.054570 51.674388 30.960585
101   1  0.5250 34.902353  6.298030  4.886301
102   1  0.5250 38.408532 10.079417 11.404872
103   1  0.5250 41.914711 13.860803 17.923443
104   1  0.5250 45.420890 17.642190 24.442014
105   1  0.5250 48.927068 21.423577 30.960585
106   1  0.5250 34.330306 13.860733  4.886301
107   1  0.5250 37.836485 17.642120 11.404872
108   1  0.5250 41.342663 21.423506 17.923443
109   1  0.5250 44.848842 25.204893 24.442014
110   1  0.5250 48.355021 28.986280 30.960585
111   1  0.5250 33.758259 21.423436  4.886301
112   1  0.5250 37.264437 25.204822 11.404872
113   1  0.5250 40.770616 28.986209 17.923443
114   1  0.5250 44.276795 32.767596 24.442014
115   1  0.5250 47.782973 36.548983 30.960585
116   1  0.5250 33.186211 28.986139  4.886301
117   1  0.5250 36.692390 32.767525 11.404872
118   1  0.5250 40.198569 36.548912 17.923443
119   1  0.5250 43.704747 40.330299 24.442014
120   1  0.5250 47.210926 44.111685 30.960585
121   1  0.5250 32.614164 36.548842  4.886301
122   1  0.5250 36.120343 40.330228 11.404872
123   1  0.5250 39.626521 44.111615 17.923443
124   1  0.5250 43.132700 47.893002 24.442014
125   1  0.5250 46.638879 51.674388 30.960585
126   1  0.5250  8.071239 10.079378  4.886282
127   1  0.5250 11.577418 13.860764 11.404853
128   1  0.5250 15.083596 17.642151 17.923424
129   1  0.5250 18.589775 21.423538 24.441995
130   1  0.5250 22.095954 25.204924 30.960566
131   1  0.5250  7.499191 17.642081  4.886282
132   1  0.5250 11.005370 21.423467 11.404853
133   1  0.5250 14.511549 25.204854 17.923424
134   1  0.5250 18.017728 28.986241 24.441995
135   1  0.5250 21.523906 32.767627 30.960566
136   1  0.5250  6.927144 25.204783  4.886282
137   1  0.5250 10.433323 28.986170 11.404853
138   1  0.5250 13.939501 32.767557 17.923424
139   1  0.5250 17.445680 36.548944 24.441995
140   1  0.5250 20.951859 40.330330 30.960566
141   1  0.5250  6.355097 32.767486  4.886282
142   1  0.5250  9.861275 36.548873 11.404853
143   1  0.5250 13.367454 40.330260 17.923424
144   1  0.5250 16.873633 44.111646 24.441995
145   1  0.5250 20.379811 47.893033 30.960566
146   1  0.5250  5.783049 40.330189  4.886282
147   1  0.5250  9.289228 44.111576 11.404853
148   1  0.5250 12.795407 47.892963 17.923424
149   1  0.5250 16.301585 51.674349 24.441995
150   1  0.5250 19.807764 55.455736 30.960566
151   1  0.5250 15.655547 10.079378  4.886282
152   1  0.5250 19.161726 13.860764 11.404853
153   1  0.5250 22.667905 17.642151 17.923424
154   1  0.5250 26.174083 21.423538 24.441995
155   1  0.5250 29.680262 25.204924 30.960566
156   1  0.5250 15.083500 17.642081  4.886282
157   1  0.5250 18.589679 21.423467 11.404853
158   1  0.5250 22.095857 25.204854 17.923424
159   1  0.5250 25.602036 28.986241 24.441995
160   1  0.5250 29.108215 32.767627 30.960566
161   1  0.5250 14.511453 25.204783  4.886282
162   1  0.5250 18.017631 28.986170 11.404853
163   1  0.5250 21.523810 32.767557 17.923424
164   1  0.5250 25.029989 36.548944 24.441995
165   1  0.5250 28.536167 40.330330 30.960566
166   1  0.5250 13.939405 32.767486  4.886282
167   1  0.5250 17.445584 36.548873 11.404853
168   1  0.5250 20.951763 40.330260 17.923424
169   1  0.5250 24.457941 44.111646 24.441995
170   1  0.5250 27.964120 47.893033 30.960566
171   1  0.5250 13.367358 40.330189  4.886282
172   1  0.5250 16.873536 44.111576 11.404853
173   1  0.5250 20.379715 47.892963 17.923424
174   1  0.5250 23.885894 51.674349 24.441995
175   1  0.5250 27.392073 55.455736 30.960566
176   1  0.5250 23.239856 10.079378  4.886282
177   1  0.5250 26.746035 13.860764 11.404853
178   1  0.5250 30.252213 17.642151 17.923424
179   1  0.5250 33.758392 21.423538 24.441995
180   1  0.5250 37.264571 25.204924 30.960566
181   1  0.5250 22.667808 17.642081  4.886282
182   1  0.5250 26.173987 21.423467 11.404853
183   1  0.5250 29.680166 25.204854 17.923424
184   1  0.5250 33.186345 28.986241 24.441995
185   1  0.5250 36.692523 32.767627 30.960566
186   1  0.5250 22.095761 25.204783  4.886282
187   1  0.5250 25.601940 28.986170 11.404853
188   1  0.5250 29.108118 32.767557 17.923424
189   1  0.5250 32.614297 36.548944 24.441995
190   1  0.5250 36.120476 40.330330 30.960566
191   1  0.5250 21.523714 32.767486  4.886282
192   1  0.5250 25.029892 36.548873 11.404853
193   1  0.5250 28.536071 40.330260 17.923424
194   1  0.5250 32.042250 44.111646 24.441995
195   1  0.5250 35.548428 47.893033 30.960566
196   1  0.5250 20.951666 40.330189  4.886282
197   1  0.5250 24.457845 44.111576 11.404853
198   1  0.5250 27.964024 47.892963 17.923424
199   1  0.5250 31.470202 51.674349 24.441995
200   1  0.5250 34.976381 55.455736 30.960566
201   1  0.5250 30.824164 10.079378  4.886282
202   1  0.5250 34.330343 13.860764 11.404853
203   1  0.5250 37.836522 17.642151 17.923424
204   1  0.5250 41.342700 21.423538 24.441995
205   1  0.5250 44.848879 25.204924 30.960566
206   1  0.5250 30.252117 17.642081  4.886282
207   1  0.5250 33.758296 21.423467 11.404853
208   1  0.5250 37.264474 25.204854 17.923424
209   1  0.5250 40.770653 28.986241 24.441995
210   1  0.5250 44.276832 32.767627 30.960566
211   1  0.5250 29.680070 25.204783  4.886282
212   1  0.5250 33.186248 28.986170 11.404853
213   1  0.5250 36.692427 32.767557 17.923424
214   1  0.5250 40.198606 36.548944 24.441995
215   1  0.5250 43.704784 40.330330 30.960566
216   1  0.5250 29.108022 32.767486  4.886282
217   1  0.5250 32.614201 36.548873 11.404853
218   1  0.5250 36.120380 40.330260 17.923424
219   1  0.5250 39.626558 44.111646 24.441995
220   1  0.5250 43.132737 47.893033 30.960566
221   1  0.5250 28.535975 40.330189  4.886282
222   1  0.5250 32.042153 44.111576 11.404853
223   1  0.5250 35.548332 47.892963 17.923424
224   1  0.5250 39.054511 51.674349 24.441995
225   1  0.5250 42.560690 55.455736 30.960566
226   1  0.5250 38.408473 10.079378  4.886282
227   1  0.5250 41.914652 13.860764 11.404853
228   1  0.5250 45.420830 17.642151 17.923424
229   1  0.5250 48.927009 21.423538 24.441995
230   1  0.5250 52.433188 25.204924 30.960566
231   1  0.5250 37.836425 17.642081  4.886282
232   1  0.5250 41.342604 21.423467 11.404853
233   1  0.5250 44.848783 25.204854 17.923424
234   1  0.5250 48.354962 28.986241 24.441995
235   1  0.5250 51.861140 32.767627 30.960566
236   1  0.5250 37.264378 25.204783  4.886282
237   1  0.5250 40.770557 28.986170 11.404853
238   1  0.5250 44.276735 32.767557 17.923424
239   1  0.5250 47.782914 36.548944 24.441995
240   1  0.5250 51.289093 40.330330 30.960566
241   1  0.5250 36.692331 32.767486  4.886282
242   1  0.5250 40.198509 36.548873 11.404853
243   1  0.5250 43.704688 40.330260 17.923424
244   1  0.5250 47.210867 44.111646 24.441995
245   1  0.5250 50.717045 47.893033 30.960566
246   1  0.5250 36.120283 40.330189  4.886282
247   1  0.5250 39.626462 44.111576 11.404853
248   1  0.5250 43.132641 47.892963 17.923424
249   1  0.5250 46.638819 51.674349 24.441995
250   1  0.5250 50.144998 55.455736 30.960566
251   1  0.5250  4.182723  3.136533  4.891686
252   1  0.5250  7.688902  6.917919 11.410257
253   1  0.5250 11.195080 10.699306 17.928828
254   1  0.5250 14.701259 14.480693 24.447399
255   1  0.5250 18.207438 18.262079 30.965970
256   1  0.5250  3.610676 10.699236  4.891686
257   1  0.5250  7.116854 14.480622 11.410257
258   1  0.5250 10.623033 18.262009 17.928828
259   1  0.5250 14.129212 22.043396 24.447399
260   1  0.5250 17.635390 25.824782 30.965970
261   1  0.5250  3.038628 18.261939  4.891686
262   1  0.5250  6.544807 22.043325 11.410257
263   1  0.5250 10.050986 25.824712 17.928828
264   1  0.5250 13.557164 29.606099 24.447399
265   1  0.5250 17.063343 33.387485 30.965970
266   1  0.5250  2.466581 25.824642  4.891686
267   1  0.5250  5.972759 29.606028 11.410257
268   1  0.5250  9.478938 33.387415 17.928828
269   1  0.5250 12.985117 37.168802 24.447399
270   1  0.5250 16.491296 40.950188 30.965970
271   1  0.5250  1.894533 33.387344  4.891686
272   1  0.5250  5.400712 37.168731 11.410257
273   1  0.5250  8.906891 40.950118 17.928828
274   1  0.5250 12.413069 44.731505 24.447399
275   1  0.5250 15.919248 48.512891 30.965970
276   1  0.5250 11.767031  3.136533  4.891686
277   1  0.5250 15.273210  6.917919 11.410257
278   1  0.5250 18.779389 10.699306 17.928828
279   1  0.5250 22.285568 14.480693 24.447399
280   1  0.5250 25.791746 18.262079 30.965970
281   1  0.5250 11.194984 10.699236  4.891686
282   1  0.5250 14.701163 14.480622 11.410257
283   1  0.5250 18.207341 18.262009 17.928828
284   1  0.5250 21.713520 22.043396 24.447399
285   1  0.5250 25.219699 25.824782 30.965970
286   1  0.5250 10.622937 18.261939  4.891686
287   1  0.5250 14.129115 22.043325 11.410257
288   1  0.5250 17.635294 25.824712 17.928828
289   1  0.5250 21.141473 29.606099 24.447399
290   1  0.5250 24.647651 33.387485 30.965970
291   1  0.5250 10.050889 25.824642  4.891686
292   1  0.5250 13.557068 29.606028 11.410257
293   1  0.5250 17.063247 33.387415 17.928828
294   1  0.5250 20.569425 37.168802 24.447399
295   1  0.5250 24.075604 40.950188 30.965970
296   1  0.5250  9.478842 33.387344  4.891686
297   1  0.5250 12.985021 37.168731 11.410257
298   1  0.5250 16.491199 40.950118 17.928828
299   1  0.5250 19.997378 44.731505 24.447399
300   1  0.5250 23.503557 48.512891 30.965970
301   1  0.5250 19.351340  3.136533  4.891686
302   1  0.5250 22.857519  6.917919 11.410257
303   1  0.5250 26.363697 10.699306 17.928828
304   1  0.5250 29.869876 14.480693 24.447399
305   1  0.5250 33.376055 18.262079 30.965970
306   1  0.5250 18.779293 10.699236  4.891686
307   1  0.5250 22.285471 14.480622 11.410257
308   1  0.5250 25.791650 18.262009 17.928828
309   1  0.5250 29.297829 22.043396 24.447399
310   1  0.5250 32.804007 25.824782 30.965970
311   1  0.5250 18.207245 18.261939  4.891686
312   1  0.5250 21.713424 22.043325 11.410257
313   1  0.5250 25.219603 25.824712 17.928828
314   1  0.5250 28.725781 29.606099 24.447399
315   1  0.5250 32.231960 33.387485 30.965970
316   1  0.5250 17.635198 25.824642  4.891686
317   1  0.5250 21.141376 29.606028 11.410257
318   1  0.5250 24.647555 33.387415 17.928828
319   1  0.5250 28.153734 37.168802 24.447399
320   1  0.5250 31.659913 40.950188 30.965970
321   1  0.5250 17.063150 33.387344  4.891686
322   1  0.5250 20.569329 37.168731 11.410257
323   1  0.5250 24.075508 40.950118 17.928828
324   1  0.5250 27.581686 44.731505 24.447399
325   1  0.5250 31.087865 48.512891 30.965970
326   1  0.5250 26.935648  3.136533  4.891686
327   1  0.5250 30.441827  6.917919 11.410257
328   1  0.5250 33.948006 10.699306 17.928828
329   1  0.5250 37.454185 14.480693 24.447399
330   1  0.5250 40.960363 18.262079 30.965970
331   1  0.5250 26.363601 10.699236  4.891686
332   1  0.5250 29.869780 14.480622 11.410257
333   1  0.5250 33.375958 18.262009 17.928828
334   1  0.5250 36.882137 22.043396 24.447399
335   1  0.5250 40.388316 25.824782 30.965970
336   1  0.5250 25.791554 18.261939  4.891686
337   1  0.5250 29.297732 22.043325 11.410257
338   1  0.5250 32.803911 25.824712 17.928828
339   1  0.5250 36.310090 29.606099 24.447399
340   1  0.5250 39.816268 33.387485 30.965970
341   1  0.5250 25.219506 25.824642  4.891686
342   1  0.5250 28.725685 29.606028 11.410257
343   1  0.5250 32.231864 33.387415 17.928828
344   1  0.5250 35.738042 37.168802 24.447399
345   1  0.5250 39.244221 40.950188 30.965970
346   1  0.5250 24.647459 33.387344  4.891686
347   1  0.5250 28.153638 37.168731 11.410257
348   1  0.5250 31.659816 40.950118 17.928828
349   1  0.5250 35.165995 44.731505 24.447399
350   1  0.5250 38.672174 48.512891 30.965970
351   1  0.5250 34.519957  3.136533  4.891686
352   1  0.5250 38.026136  6.917919 11.410257
353   1  0.5250 41.532314 10.699306 17.928828
354   1  0.5250 45.038493 14.480693 24.447399
355   1  0.5250 48.544672 18.262079 30.965970
356   1  0.5250 33.947910 10.699236  4.891686
357   1  0.5250 37.454088 14.480622 11.410257
358   1  0.5250 40.960267 18.262009 17.928828
359   1  0.5250 44.466446 22.043396 24.447399
360   1  0.5250 47.972624 25.824782 30.965970
361   1  0.5250 33.375862 18.261939  4.891686
362   1  0.5250 36.882041 22.043325 11.410257
363   1  0.5250 40.388220 25.824712 17.928828
364   1  0.5250 43.894398 29.606099 24.447399
365   1  0.5250 47.400577 33.387485 30.965970
366   1  0.5250 32.803815 25.824642  4.891686
367   1  0.5250 36.309993 29.606028 11.410257
368   1  0.5250 39.816172 33.387415 17.928828
369   1  0.5250 43.322351 37.168802 24.447399
370   1  0.5250 46.828530 40.950188 30.965970
371   1  0.5250 32.231767 33.387344  4.891686
372   1  0.5250 35.737946 37.168731 11.410257
373   1  0.5250 39.244125 40.950118 17.928828
374   1  0.5250 42.750303 44.731505 24.447399
375   1  0.5250 46.256482 48.512891 30.965970
376   1  0.5250  7.688835  6.917880  4.891692
377   1  0.5250 11.195014 10.699267 11.410263
378   1  0.5250 14.701192 14.480654 17.928834
379   1  0.5250 18.207371 18.262040 24.447405
380   1  0.5250 21.713550 22.043427 30.965976
381   1  0.5250  7.116787 14.480583  4.891692
382   1  0.5250 10.622966 18.261970 11.410263
383   1  0.5250 14.129145 22.043357 17.928834
384   1  0.5250 17.635324 25.824743 24.447405
385   1  0.5250 21.141502 29.606130 30.965976
386   1  0.5250  6.544740 22.043286  4.891692
387   1  0.5250 10.050919 25.824673 11.410263
388   1  0.5250 13.557097 29.606060 17.928834
389   1  0.5250 17.063276 33.387446 24.447405
390   1  0.5250 20.569455 37.168833 30.965976
391   1  0.5250  5.972693 29.605989  4.891692
392   1  0.5250  9.478871 33.387376 11.410263
393   1  0.5250 12.985050 37.168763 17.928834
394   1  0.5250 16.491229 40.950149 24.447405
395   1  0.5250 19.997407 44.731536 30.965976
396   1  0.5250  5.400645 37.168692  4.891692
397   1  0.5250  8.906824 40.950079 11.410263
398   1  0.5250 12.413003 44.731466 17.928834
399   1  0.5250 15.919181 48.512852 24.447405
400   1  0.5250 19.425360 52.294239 30.965976
401   1  0.5250 15.273143  6.917880  4.891692
402   1  0.5250 18.779322 10.699267 11.410263
403   1  0.5250 22.285501 14.480654 17.928834
404   1  0.5250 25.791679 18.262040 24.447405
405   1  0.5250 29.297858 22.043427 30.965976
406   1  0.5250 14.701096 14.480583  4.891692
407   1  0.5250 18.207275 18.261970 11.410263
408   1  0.5250 21.713453 22.043357 17.928834
409   1  0.5250 25.219632 25.824743 24.447405
410   1  0.5250 28.725811 29.606130 30.965976
411   1  0.5250 14.129048 22.043286  4.891692
412   1  0.5250 17.635227 25.824673 11.410263
413   1  0.5250 21.141406 29.606060 17.928834
414   1  0.5250 24.647585 33.387446 24.447405
415   1  0.5250 28.153763 37.168833 30.965976
416   1  0.5250 13.557001 29.605989  4.891692
417   1  0.5250 17.063180 33.387376 11.410263
418   1  0.5250 20.569359 37.168763 17.928834
419   1  0.5250 24.075537 40.950149 24.447405
420   1  0.5250 27.581716 44.731536 30.965976
421   1  0.5250 12.984954 37.168692  4.891692
422   1  0.5250 16.491132 40.950079 11.410263
423   1  0.5250 19.997311 44.731466 17.928834
424   1  0.5250 23.503490 48.512852 24.447405
425   1  0.5250 27.009669 52.294239 30.965976
426   1  0.5250 22.857452  6.917880  4.891692
427   1  0.5250 26.363631 10.699267 11.410263
428   1  0.5250 29.869809 14.480654 17.928834
429   1  0.5250 33.375988 18.262040 24.447405
430   1  0.5250 36.882167 22.043427 30.965976
431   1  0.5250 22.285404 14.480583  4.891692
432   1  0.5250 25.791583 18.261970 11.410263
433   1  0.5250 29.297762 22.043357 17.928834
434   1  0.5250 32.803941 25.824743 24.447405
435   1  0.5250 36.310119 29.606130 30.965976
436   1  0.5250 21.713357 22.043286  4.891692
437   1  0.5250 25.219536 25.824673 11.410263
438   1  0.5250 28.725714 29.606060 17.928834
439   1  0.5250 32.231893 33.387446 24.447405
440   1  0.5250 35.738072 37.168833 30.965976
441   1  0.5250 21.141310 29.605989  4.891692
442   1  0.5250 24.647488 33.387376 11.410263
443   1  0.5250 28.153667 37.168763 17.928834
444   1  0.5250 31.659846 40.950149 24.447405
445   1  0.5250 35.166024 44.731536 30.965976
446   1  0.5250 20.569262 37.168692  4.891692
447   1  0.5250 24.075441 40.950079 11.410263
448   1  0.5250 27.581620 44.731466 17.928834
449   1  0.5250 31.087798 48.512852 24.447405
450   1  0.5250 34.593977 52.294239 30.965976
451   1  0.5250 30.441760  6.917880  4.891692
452   1  0.5250 33.947939 10.699267 11.410263
453   1  0.5250 37.454118 14.480654 17.928834
454   1  0.5250 40.960296 18.262040 24.447405
455   1  0.5250 44.466475 22.043427 30.965976
456   1  0.5250 29.869713 14.480583  4.891692
457   1  0.5250 33.375892 18.261970 11.410263
458   1  0.5250 36.882070 22.043357 17.928834
459   1  0.5250 40.388249 25.824743 24.447405
460   1  0.5250 43.894428 29.606130 30.965976
461   1  0.5250 29.297665 22.043286  4.891692
462   1  0.5250 32.803844 25.824673 11.410263
463   1  0.5250 36.310023 29.606060 17.928834
464   1  0.5250 39.816202 33.387446 24.447405
465   1  0.5250 43.322380 37.168833 30.965976
466   1  0.5250 28.725618 29.605989  4.891692
467   1  0.5250 32.231797 33.387376 11.410263
468   1  0.5250 35.737976 37.168763 17.928834
469   1  0.5250 39.244154 40.950149 24.447405
470   1  0.5250 42.750333 44.731536 30.965976
471   1  0.5250 28.153571 37.168692  4.891692
472   1  0.5250 31.659749 40.950079 11.410263
473   1  0.5250 35.165928 44.731466 17.928834
474   1  0.5250 38.672107 48.512852 24.447405
475   1  0.5250 42.178286 52.294239 30.965976
476   1  0.5250 38.026069  6.917880  4.891692
477   1  0.5250 41.532248 10.699267 11.410263
478   1  0.5250 45.038426 14.480654 17.928834
479   1  0.5250 48.544605 18.262040 24.447405
480   1  0.5250 52.050784 22.043427 30.965976
481   1  0.5250 37.454021 14.480583  4.891692
482   1  0.5250 40.960200 18.261970 11.410263
483   1  0.5250 44.466379 22.043357 17.928834
484   1  0.5250 47.972558 25.824743 24.447405
485   1  0.5250 51.478736 29.606130 30.965976
486   1  0.5250 36.881974 22.043286  4.891692
487   1  0.5250 40.388153 25.824673 11.410263
488   1  0.5250 43.894331 29.606060 17.928834
489   1  0.5250 47.400510 33.387446 24.447405
490   1  0.5250 50.906689 37.168833 30.965976
491   1  0.5250 36.309927 29.605989  4.891692
492   1  0.5250 39.816105 33.387376 11.410263
493   1  0.5250 43.322284 37.168763 17.928834
494   1  0.5250 46.828463 40.950149 24.447405
495   1  0.5250 50.334641 44.731536 30.965976
496   1  0.5250 35.737879 37.168692  4.891692
497   1  0.5250 39.244058 40.950079 11.410263
498   1  0.5250 42.750237 44.731466 17.928834
499   1  0.5250 46.256415 48.512852 24.447405
500   1  0.5250 49.762594 52.294239 30.965976
501   1  0.5250  4.182675  3.136432  1.627003
502   1  0.5250  7.688853  6.917819  8.145574
503   1  0.5250 11.195032 10.699205 14.664145
504   1  0.5250 14.701211 14.480592 21.182716
505   1  0.5250 18.207390 18.261979 27.701287
506   1  0.5250  3.610627 10.699135  1.627003
507   1  0.5250  7.116806 14.480521  8.145574
508   1  0.5250 10.622985 18.261908 14.664145
509   1  0.5250 14.129163 22.043295 21.182716
510   1  0.5250 17.635342 25.824682 27.701287
511   1  0.5250  3.038580 18.261838  1.627003
512   1  0.5250  6.544759 22.043224  8.145574
513   1  0.5250 10.050937 25.824611 14.664145
514   1  0.5250 13.557116 29.605998 21.182716
515   1  0.5250 17.063295 33.387385 27.701287
516   1  0.5250  2.466533 25.824541  1.627003
517   1  0.5250  5.972711 29.605927  8.145574
518   1  0.5250  9.478890 33.387314 14.664145
519   1  0.5250 12.985069 37.168701 21.182716
520   1  0.5250 16.491247 40.950087 27.701287
521   1  0.5250  1.894485 33.387244  1.627003
522   1  0.5250  5.400664 37.168630  8.145574
523   1  0.5250  8.906843 40.950017 14.664145
524   1  0.5250 12.413021 44.731404 21.182716
525   1  0.5250 15.919200 48.512790 27.701287
526   1  0.5250 11.766983  3.136432  1.627003
527   1  0.5250 15.273162  6.917819  8.145574
528   1  0.5250 18.779341 10.699205 14.664145
529   1  0.5250 22.285519 14.480592 21.182716
530   1  0.5250 25.791698 18.261979 27.701287
531   1  0.5250 11.194936 10.699135  1.627003
532   1  0.5250 14.701115 14.480521  8.145574
533   1  0.5250 18.207293 18.261908 14.664145
534   1  0.5250 21.713472 22.043295 21.182716
535   1  0.5250 25.219651 25.824682 27.701287
536   1  0.5250 10.622888 18.261838  1.627003
537   1  0.5250 14.129067 22.043224  8.145574
538   1  0.5250 17.635246 25.824611 14.664145
539   1  0.5250 21.141425 29.605998 21.182716
540   1  0.5250 24.647603 33.387385 27.701287
541   1  0.5250 10.050841 25.824541  1.627003
542   1  0.5250 13.557020 29.605927  8.145574
543   1  0.5250 17.063198 33.387314 14.664145
544   1  0.5250 20.569377 37.168701 21.182716
545   1  0.5250 24.075556 40.950087 27.701287
546   1  0.5250  9.478794 33.387244  1.627003
547   1  0.5250 12.984972 37.168630  8.145574
548   1  0.5250 16.491151 40.950017 14.664145
549   1  0.5250 19.997330 44.731404 21.182716
550   1  0.5250 23.503508 48.512790 27.701287
551   1  0.5250 19.351292  3.136432  1.627003
552   1  0.5250 22.857470  6.917819  8.145574
553   1  0.5250 26.363649 10.699205 14.664145
554   1  0.5250 29.869828 14.480592 21.182716
555   1  0.5250 33.376007 18.261979 27.701287
556   1  0.5250 18.779244 10.699135  1.627003
557   1  0.5250 22.285423 14.480521  8.145574
558   1  0.5250 25.791602 18.261908 14.664145
559   1  0.5250 29.297780 22.043295 21.182716
560   1  0.5250 32.803959 25.824682 27.701287
561   1  0.5250 18.207197 18.261838  1.627003
562   1  0.5250 21.713376 22.043224  8.145574
563   1  0.5250 25.219554 25.824611 14.664145
564   1  0.5250 28.725733 29.605998 21.182716
565   1  0.5250 32.231912 33.387385 27.701287
566   1  0.5250 17.635150 25.824541  1.627003
567   1  0.5250 21.141328 29.605927  8.145574
568   1  0.5250 24.647507 33.387314 14.664145
569   1  0.5250 28.153686 37.168701 21.182716
570   1  0.5250 31.659864 40.950087 27.701287
571   1  0.5250 17.063102 33.387244  1.627003
572   1  0.5250 20.569281 37.168630  8.145574
573   1  0.5250 24.075460 40.950017 14.664145
574   1  0.5250 27.581638 44.731404 21.182716
575   1  0.5250 31.087817 48.512790 27.701287
576   1  0.5250 26.935600  3.136432  1.627003
577   1  0.5250 30.441779  6.917819  8.145574
578   1  0.5250 33.947958 10.699205 14.664145
579   1  0.5250 37.454136 14.480592 21.182716
580   1  0.5250 40.960315 18.261979 27.701287
581   1  0.5250 26.363553 10.699135  1.627003
582   1  0.5250 29.869732 14.480521  8.145574
583   1  0.5250 33.375910 18.261908 14.664145
584   1  0.5250 36.882089 22.043295 21.182716
585   1  0.5250 40.388268 25.824682 27.701287
586   1  0.5250 25.791505 18.261838  1.627003
587   1  0.5250 29.297684 22.043224  8.145574
588   1  0.5250 32.803863 25.824611 14.664145
589   1  0.5250 36.310042 29.605998 21.182716
590   1  0.5250 39.816220 33.387385 27.701287
591   1  0.5250 25.219458 25.824541  1.627003
592   1  0.5250 28.725637 29.605927  8.145574
593   1  0.5250 32.231815 33.387314 14.664145
594   1  0.5250 35.737994 37.168701 21.182716
595   1  0.5250 39.244173 40.950087 27.701287
596   1  0.5250 24.647411 33.387244  1.627003
597   1  0.5250 28.153589 37.168630  8.145574
598   1  0.5250 31.659768 40.950017 14.664145
599   1  0.5250 35.165947 44.731404 21.182716
600   1  0.5250 38.672125 48.512790 27.701287
601   1  0.5250 34.519909  3.136432  1.627003
602   1  0.5250 38.026087  6.917819  8.145574
603   1  0.5250 41.532266 10.699205 14.664145
604   1  0.5250 45.038445 14.480592 21.182716
605   1  0.5250 48.544624 18.261979 27.701287
606   1  0.5250 33.947861 10.699135  1.627003
607   1  0.5250 37.454040 14.480521  8.145574
608   1  0.5250 40.960219 18.261908 14.664145
609   1  0.5250 44.466397 22.043295 21.182716
610   1  0.5250 47.972576 25.824682 27.701287
611   1  0.5250 33.375814 18.261838  1.627003
612   1  0.5250 36.881993 22.043224  8.145574
613   1  0.5250 40.388171 25.824611 14.664145
614   1  0.5250 43.894350 29.605998 21.182716
615   1  0.5250 47.400529 33.387385 27.701287
616   1  0.5250 32.803767 25.824541  1.627003
617   1  0.5250 36.309945 29.605927  8.145574
618   1  0.5250 39.816124 33.387314 14.664145
619   1  0.5250 43.322303 37.168701 21.182716
620   1  0.5250 46.828481 40.950087 27.701287
621   1  0.5250 32.231719 33.387244  1.627003
622   1  0.5250 35.737898 37.168630  8.145574
623   1  0.5250 39.244077 40.950017 14.664145
624   1  0.5250 42.750255 44.731404 21.182716
625   1  0.5250 46.256434 48.512790 27.701287
626   1  0.5250  7.688812  6.917791  1.627016
627   1  0.5250 11.194991 10.699178  8.145587
628   1  0.5250 14.701170 14.480564 14.664158
629   1  0.5250 18.207348 18.261951 21.182729
630   1  0.5250 21.713527 22.043338 27.701300
631   1  0.5250  7.116765 14.480494  1.627016
632   1  0.5250 10.622944 18.261881  8.145587
633   1  0.5250 14.129122 22.043267 14.664158
634   1  0.5250 17.635301 25.824654 21.182729
635   1  0.5250 21.141480 29.606041 27.701300
636   1  0.5250  6.544718 22.043197  1.627016
637   1  0.5250 10.050896 25.824583  8.145587
638   1  0.5250 13.557075 29.605970 14.664158
639   1  0.5250 17.063254 33.387357 21.182729
640   1  0.5250 20.569432 37.168744 27.701300
641   1  0.5250  5.972670 29.605900  1.627016
642   1  0.5250  9.478849 33.387286  8.145587
643   1  0.5250 12.985028 37.168673 14.664158
644   1  0.5250 16.491206 40.950060 21.182729
645   1  0.5250 19.997385 44.731447 27.701300
646   1  0.5250  5.400623 37.168603  1.627016