Generated by pymatgen.io.lammps.data.LammpsData

3500  atoms

   4  atom types

0.000000 30.195263  xlo xhi
0.000000 51.402916  ylo yhi
0.000000 25.778042  zlo zhi
15.064948 15.087062 4.428094  xy xz yz

Masses

1    6.9410
2   50.9415
3  121.7600
4   15.9994

Atoms

1     1 0.0000  6.033721  7.542924  2.240586
2     1 0.0000  9.051134  8.428543  7.396195
3     1 0.0000 12.068546  9.314162 12.551803
4     1 0.0000 15.085959 10.199781 17.707411
5     1 0.0000 18.103371 11.085399 22.863020
6     1 0.0000  9.046711 17.823507  2.240586
7     1 0.0000 12.064123 18.709126  7.396195
8     1 0.0000 15.081536 19.594745 12.551803
9     1 0.0000 18.098948 20.480364 17.707411
10    1 0.0000 21.116360 21.365983 22.863020
11    1 0.0000 12.059701 28.104090  2.240586
12    1 0.0000 15.077113 28.989709  7.396195
13    1 0.0000 18.094525 29.875328 12.551803
14    1 0.0000 21.111938 30.760947 17.707411
15    1 0.0000 24.129350 31.646566 22.863020
16    1 0.0000 15.072690 38.384673  2.240586
17    1 0.0000 18.090103 39.270292  7.396195
18    1 0.0000 21.107515 40.155911 12.551803
19    1 0.0000 24.124927 41.041530 17.707411
20    1 0.0000 27.142340 41.927149 22.863020
21    1 0.0000 18.085680 48.665256  2.240586
22    1 0.0000 21.103092 49.550875  7.396195
23    1 0.0000 24.120504 50.436494 12.551803
24    1 0.0000 27.137917 51.322113 17.707411
25    1 0.0000 30.155329 52.207732 22.863020
26    1 0.0000 12.072774  7.542924  2.240586
27    1 0.0000 15.090186  8.428543  7.396195
28    1 0.0000 18.107599  9.314162 12.551803
29    1 0.0000 21.125011 10.199781 17.707411
30    1 0.0000 24.142423 11.085399 22.863020
31    1 0.0000 15.085764 17.823507  2.240586
32    1 0.0000 18.103176 18.709126  7.396195
33    1 0.0000 21.120588 19.594745 12.551803
34    1 0.0000 24.138001 20.480364 17.707411
35    1 0.0000 27.155413 21.365983 22.863020
36    1 0.0000 18.098753 28.104090  2.240586
37    1 0.0000 21.116165 28.989709  7.396195
38    1 0.0000 24.133578 29.875328 12.551803
39    1 0.0000 27.150990 30.760947 17.707411
40    1 0.0000 30.168403 31.646566 22.863020
41    1 0.0000 21.111743 38.384673  2.240586
42    1 0.0000 24.129155 39.270292  7.396195
43    1 0.0000 27.146567 40.155911 12.551803
44    1 0.0000 30.163980 41.041530 17.707411
45    1 0.0000 33.181392 41.927149 22.863020
46    1 0.0000 24.124732 48.665256  2.240586
47    1 0.0000 27.142145 49.550875  7.396195
48    1 0.0000 30.159557 50.436494 12.551803
49    1 0.0000 33.176969 51.322113 17.707411
50    1 0.0000 36.194382 52.207732 22.863020
51    1 0.0000 18.111826  7.542924  2.240586
52    1 0.0000 21.129239  8.428543  7.396195
53    1 0.0000 24.146651  9.314162 12.551803
54    1 0.0000 27.164064 10.199781 17.707411
55    1 0.0000 30.181476 11.085399 22.863020
56    1 0.0000 21.124816 17.823507  2.240586
57    1 0.0000 24.142228 18.709126  7.396195
58    1 0.0000 27.159641 19.594745 12.551803
59    1 0.0000 30.177053 20.480364 17.707411
60    1 0.0000 33.194466 21.365983 22.863020
61    1 0.0000 24.137806 28.104090  2.240586
62    1 0.0000 27.155218 28.989709  7.396195
63    1 0.0000 30.172630 29.875328 12.551803
64    1 0.0000 33.190043 30.760947 17.707411
65    1 0.0000 36.207455 31.646566 22.863020
66    1 0.0000 27.150795 38.384673  2.240586
67    1 0.0000 30.168208 39.270292  7.396195
68    1 0.0000 33.185620 40.155911 12.551803
69    1 0.0000 36.203032 41.041530 17.707411
70    1 0.0000 39.220445 41.927149 22.863020
71    1 0.0000 30.163785 48.665256  2.240586
72    1 0.0000 33.181197 49.550875  7.396195
73    1 0.0000 36.198609 50.436494 12.551803
74    1 0.0000 39.216022 51.322113 17.707411
75    1 0.0000 42.233434 52.207732 22.863020
76    1 0.0000 24.150879  7.542924  2.240586
77    1 0.0000 27.168291  8.428543  7.396195
78    1 0.0000 30.185704  9.314162 12.551803
79    1 0.0000 33.203116 10.199781 17.707411
80    1 0.0000 36.220528 11.085399 22.863020
81    1 0.0000 27.163869 17.823507  2.240586
82    1 0.0000 30.181281 18.709126  7.396195
83    1 0.0000 33.198693 19.594745 12.551803
84    1 0.0000 36.216106 20.480364 17.707411
85    1 0.0000 39.233518 21.365983 22.863020
86    1 0.0000 30.176858 28.104090  2.240586
87    1 0.0000 33.194271 28.989709  7.396195
88    1 0.0000 36.211683 29.875328 12.551803
89    1 0.0000 39.229095 30.760947 17.707411
90    1 0.0000 42.246508 31.646566 22.863020
91    1 0.0000 33.189848 38.384673  2.240586
92    1 0.0000 36.207260 39.270292  7.396195
93    1 0.0000 39.224672 40.155911 12.551803
94    1 0.0000 42.242085 41.041530 17.707411
95    1 0.0000 45.259497 41.927149 22.863020
96    1 0.0000 36.202837 48.665256  2.240586
97    1 0.0000 39.220250 49.550875  7.396195
98    1 0.0000 42.237662 50.436494 12.551803
99    1 0.0000 45.255074 51.322113 17.707411
100   1 0.0000 48.272487 52.207732 22.863020
101   1 0.0000 30.189932  7.542924  2.240586
102   1 0.0000 33.207344  8.428543  7.396195
103   1 0.0000 36.224756  9.314162 12.551803
104   1 0.0000 39.242169 10.199781 17.707411
105   1 0.0000 42.259581 11.085399 22.863020
106   1 0.0000 33.202921 17.823507  2.240586
107   1 0.0000 36.220333 18.709126  7.396195
108   1 0.0000 39.237746 19.594745 12.551803
109   1 0.0000 42.255158 20.480364 17.707411
110   1 0.0000 45.272571 21.365983 22.863020
111   1 0.0000 36.215911 28.104090  2.240586
112   1 0.0000 39.233323 28.989709  7.396195
113   1 0.0000 42.250735 29.875328 12.551803
114   1 0.0000 45.268148 30.760947 17.707411
115   1 0.0000 48.285560 31.646566 22.863020
116   1 0.0000 39.228900 38.384673  2.240586
117   1 0.0000 42.246313 39.270292  7.396195
118   1 0.0000 45.263725 40.155911 12.551803
119   1 0.0000 48.281137 41.041530 17.707411
120   1 0.0000 51.298550 41.927149 22.863020
121   1 0.0000 42.241890 48.665256  2.240586
122   1 0.0000 45.259302 49.550875  7.396195
123   1 0.0000 48.276715 50.436494 12.551803
124   1 0.0000 51.294127 51.322113 17.707411
125   1 0.0000 54.311539 52.207732 22.863020
126   1 0.0000  9.055362  2.845633  4.818308
127   1 0.0000 12.072775  3.731252  9.973916
128   1 0.0000 15.090187  4.616871 15.129525
129   1 0.0000 18.107599  5.502490 20.285133
130   1 0.0000 21.125012  6.388109 25.440741
131   1 0.0000 12.068352 13.126216  4.818308
132   1 0.0000 15.085764 14.011835  9.973916
133   1 0.0000 18.103177 14.897454 15.129525
134   1 0.0000 21.120589 15.783073 20.285133
135   1 0.0000 24.138001 16.668692 25.440741
136   1 0.0000 15.081342 23.406799  4.818308
137   1 0.0000 18.098754 24.292418  9.973916
138   1 0.0000 21.116166 25.178037 15.129525
139   1 0.0000 24.133579 26.063656 20.285133
140   1 0.0000 27.150991 26.949275 25.440741
141   1 0.0000 18.094331 33.687383  4.818308
142   1 0.0000 21.111743 34.573001  9.973916
143   1 0.0000 24.129156 35.458620 15.129525
144   1 0.0000 27.146568 36.344239 20.285133
145   1 0.0000 30.163981 37.229858 25.440741
146   1 0.0000 21.107321 43.967966  4.818308
147   1 0.0000 24.124733 44.853585  9.973916
148   1 0.0000 27.142145 45.739203 15.129525
149   1 0.0000 30.159558 46.624822 20.285133
150   1 0.0000 33.176970 47.510441 25.440741
151   1 0.0000 15.094415  2.845633  4.818308
152   1 0.0000 18.111827  3.731252  9.973916
153   1 0.0000 21.129240  4.616871 15.129525
154   1 0.0000 24.146652  5.502490 20.285133
155   1 0.0000 27.164064  6.388109 25.440741
156   1 0.0000 18.107404 13.126216  4.818308
157   1 0.0000 21.124817 14.011835  9.973916
158   1 0.0000 24.142229 14.897454 15.129525
159   1 0.0000 27.159642 15.783073 20.285133
160   1 0.0000 30.177054 16.668692 25.440741
161   1 0.0000 21.120394 23.406799  4.818308
162   1 0.0000 24.137806 24.292418  9.973916
163   1 0.0000 27.155219 25.178037 15.129525
164   1 0.0000 30.172631 26.063656 20.285133
165   1 0.0000 33.190044 26.949275 25.440741
166   1 0.0000 24.133384 33.687383  4.818308
167   1 0.0000 27.150796 34.573001  9.973916
168   1 0.0000 30.168208 35.458620 15.129525
169   1 0.0000 33.185621 36.344239 20.285133
170   1 0.0000 36.203033 37.229858 25.440741
171   1 0.0000 27.146373 43.967966  4.818308
172   1 0.0000 30.163786 44.853585  9.973916
173   1 0.0000 33.181198 45.739203 15.129525
174   1 0.0000 36.198610 46.624822 20.285133
175   1 0.0000 39.216023 47.510441 25.440741
176   1 0.0000 21.133467  2.845633  4.818308
177   1 0.0000 24.150880  3.731252  9.973916
178   1 0.0000 27.168292  4.616871 15.129525
179   1 0.0000 30.185705  5.502490 20.285133
180   1 0.0000 33.203117  6.388109 25.440741
181   1 0.0000 24.146457 13.126216  4.818308
182   1 0.0000 27.163869 14.011835  9.973916
183   1 0.0000 30.181282 14.897454 15.129525
184   1 0.0000 33.198694 15.783073 20.285133
185   1 0.0000 36.216106 16.668692 25.440741
186   1 0.0000 27.159447 23.406799  4.818308
187   1 0.0000 30.176859 24.292418  9.973916
188   1 0.0000 33.194271 25.178037 15.129525
189   1 0.0000 36.211684 26.063656 20.285133
190   1 0.0000 39.229096 26.949275 25.440741
191   1 0.0000 30.172436 33.687383  4.818308
192   1 0.0000 33.189848 34.573001  9.973916
193   1 0.0000 36.207261 35.458620 15.129525
194   1 0.0000 39.224673 36.344239 20.285133
195   1 0.0000 42.242086 37.229858 25.440741
196   1 0.0000 33.185426 43.967966  4.818308
197   1 0.0000 36.202838 44.853585  9.973916
198   1 0.0000 39.220250 45.739203 15.129525
199   1 0.0000 42.237663 46.624822 20.285133
200   1 0.0000 45.255075 47.510441 25.440741
201   1 0.0000 27.172520  2.845633  4.818308
202   1 0.0000 30.189932  3.731252  9.973916
203   1 0.0000 33.207345  4.616871 15.129525
204   1 0.0000 36.224757  5.502490 20.285133
205   1 0.0000 39.242169  6.388109 25.440741
206   1 0.0000 30.185509 13.126216  4.818308
207   1 0.0000 33.202922 14.011835  9.973916
208   1 0.0000 36.220334 14.897454 15.129525
209   1 0.0000 39.237747 15.783073 20.285133
210   1 0.0000 42.255159 16.668692 25.440741
211   1 0.0000 33.198499 23.406799  4.818308
212   1 0.0000 36.215911 24.292418  9.973916
213   1 0.0000 39.233324 25.178037 15.129525
214   1 0.0000 42.250736 26.063656 20.285133
215   1 0.0000 45.268149 26.949275 25.440741
216   1 0.0000 36.211489 33.687383  4.818308
217   1 0.0000 39.228901 34.573001  9.973916
218   1 0.0000 42.246313 35.458620 15.129525
219   1 0.0000 45.263726 36.344239 20.285133
220   1 0.0000 48.281138 37.229858 25.440741
221   1 0.0000 39.224478 43.967966  4.818308
222   1 0.0000 42.241891 44.853585  9.973916
223   1 0.0000 45.259303 45.739203 15.129525
224   1 0.0000 48.276715 46.624822 20.285133
225   1 0.0000 51.294128 47.510441 25.440741
226   1 0.0000 33.211572  2.845633  4.818308
227   1 0.0000 36.228985  3.731252  9.973916
228   1 0.0000 39.246397  4.616871 15.129525
229   1 0.0000 42.263810  5.502490 20.285133
230   1 0.0000 45.281222  6.388109 25.440741
231   1 0.0000 36.224562 13.126216  4.818308
232   1 0.0000 39.241974 14.011835  9.973916
233   1 0.0000 42.259387 14.897454 15.129525
234   1 0.0000 45.276799 15.783073 20.285133
235   1 0.0000 48.294211 16.668692 25.440741
236   1 0.0000 39.237552 23.406799  4.818308
237   1 0.0000 42.254964 24.292418  9.973916
238   1 0.0000 45.272376 25.178037 15.129525
239   1 0.0000 48.289789 26.063656 20.285133
240   1 0.0000 51.307201 26.949275 25.440741
241   1 0.0000 42.250541 33.687383  4.818308
242   1 0.0000 45.267954 34.573001  9.973916
243   1 0.0000 48.285366 35.458620 15.129525
244   1 0.0000 51.302778 36.344239 20.285133
245   1 0.0000 54.320191 37.229858 25.440741
246   1 0.0000 45.263531 43.967966  4.818308
247   1 0.0000 48.280943 44.853585  9.973916
248   1 0.0000 51.298355 45.739203 15.129525
249   1 0.0000 54.315768 46.624822 20.285133
250   1 0.0000 57.333180 47.510441 25.440741
251   1 0.0000  3.014086  8.320569  0.337301
252   1 0.0000  6.031498  9.206188  5.492909
253   1 0.0000  9.048911 10.091806 10.648517
254   1 0.0000 12.066323 10.977425 15.804126
255   1 0.0000 15.083735 11.863044 20.959734
256   1 0.0000  6.027076 18.601152  0.337301
257   1 0.0000  9.044488 19.486771  5.492909
258   1 0.0000 12.061900 20.372390 10.648517
259   1 0.0000 15.079313 21.258008 15.804126
260   1 0.0000 18.096725 22.143627 20.959734
261   1 0.0000  9.040065 28.881735  0.337301
262   1 0.0000 12.057478 29.767354  5.492909
263   1 0.0000 15.074890 30.652973 10.648517
264   1 0.0000 18.092302 31.538592 15.804126
265   1 0.0000 21.109715 32.424210 20.959734
266   1 0.0000 12.053055 39.162318  0.337301
267   1 0.0000 15.070467 40.047937  5.492909
268   1 0.0000 18.087879 40.933556 10.648517
269   1 0.0000 21.105292 41.819175 15.804126
270   1 0.0000 24.122704 42.704794 20.959734
271   1 0.0000 15.066044 49.442901  0.337301
272   1 0.0000 18.083457 50.328520  5.492909
273   1 0.0000 21.100869 51.214139 10.648517
274   1 0.0000 24.118281 52.099758 15.804126
275   1 0.0000 27.135694 52.985377 20.959734
276   1 0.0000  9.053139  8.320569  0.337301
277   1 0.0000 12.070551  9.206188  5.492909
278   1 0.0000 15.087963 10.091806 10.648517
279   1 0.0000 18.105376 10.977425 15.804126
280   1 0.0000 21.122788 11.863044 20.959734
281   1 0.0000 12.066128 18.601152  0.337301
282   1 0.0000 15.083540 19.486771  5.492909
283   1 0.0000 18.100953 20.372390 10.648517
284   1 0.0000 21.118365 21.258008 15.804126
285   1 0.0000 24.135778 22.143627 20.959734
286   1 0.0000 15.079118 28.881735  0.337301
287   1 0.0000 18.096530 29.767354  5.492909
288   1 0.0000 21.113942 30.652973 10.648517
289   1 0.0000 24.131355 31.538592 15.804126
290   1 0.0000 27.148767 32.424210 20.959734
291   1 0.0000 18.092107 39.162318  0.337301
292   1 0.0000 21.109520 40.047937  5.492909
293   1 0.0000 24.126932 40.933556 10.648517
294   1 0.0000 27.144344 41.819175 15.804126
295   1 0.0000 30.161757 42.704794 20.959734
296   1 0.0000 21.105097 49.442901  0.337301
297   1 0.0000 24.122509 50.328520  5.492909
298   1 0.0000 27.139922 51.214139 10.648517
299   1 0.0000 30.157334 52.099758 15.804126
300   1 0.0000 33.174746 52.985377 20.959734
301   1 0.0000 15.092191  8.320569  0.337301
302   1 0.0000 18.109603  9.206188  5.492909
303   1 0.0000 21.127016 10.091806 10.648517
304   1 0.0000 24.144428 10.977425 15.804126
305   1 0.0000 27.161841 11.863044 20.959734
306   1 0.0000 18.105181 18.601152  0.337301
307   1 0.0000 21.122593 19.486771  5.492909
308   1 0.0000 24.140005 20.372390 10.648517
309   1 0.0000 27.157418 21.258008 15.804126
310   1 0.0000 30.174830 22.143627 20.959734
311   1 0.0000 21.118170 28.881735  0.337301
312   1 0.0000 24.135583 29.767354  5.492909
313   1 0.0000 27.152995 30.652973 10.648517
314   1 0.0000 30.170407 31.538592 15.804126
315   1 0.0000 33.187820 32.424210 20.959734
316   1 0.0000 24.131160 39.162318  0.337301
317   1 0.0000 27.148572 40.047937  5.492909
318   1 0.0000 30.165985 40.933556 10.648517
319   1 0.0000 33.183397 41.819175 15.804126
320   1 0.0000 36.200809 42.704794 20.959734
321   1 0.0000 27.144149 49.442901  0.337301
322   1 0.0000 30.161562 50.328520  5.492909
323   1 0.0000 33.178974 51.214139 10.648517
324   1 0.0000 36.196386 52.099758 15.804126
325   1 0.0000 39.213799 52.985377 20.959734
326   1 0.0000 21.131244  8.320569  0.337301
327   1 0.0000 24.148656  9.206188  5.492909
328   1 0.0000 27.166068 10.091806 10.648517
329   1 0.0000 30.183481 10.977425 15.804126
330   1 0.0000 33.200893 11.863044 20.959734
331   1 0.0000 24.144233 18.601152  0.337301
332   1 0.0000 27.161646 19.486771  5.492909
333   1 0.0000 30.179058 20.372390 10.648517
334   1 0.0000 33.196470 21.258008 15.804126
335   1 0.0000 36.213883 22.143627 20.959734
336   1 0.0000 27.157223 28.881735  0.337301
337   1 0.0000 30.174635 29.767354  5.492909
338   1 0.0000 33.192047 30.652973 10.648517
339   1 0.0000 36.209460 31.538592 15.804126
340   1 0.0000 39.226872 32.424210 20.959734
341   1 0.0000 30.170212 39.162318  0.337301
342   1 0.0000 33.187625 40.047937  5.492909
343   1 0.0000 36.205037 40.933556 10.648517
344   1 0.0000 39.222449 41.819175 15.804126
345   1 0.0000 42.239862 42.704794 20.959734
346   1 0.0000 33.183202 49.442901  0.337301
347   1 0.0000 36.200614 50.328520  5.492909
348   1 0.0000 39.218027 51.214139 10.648517
349   1 0.0000 42.235439 52.099758 15.804126
350   1 0.0000 45.252851 52.985377 20.959734
351   1 0.0000 27.170296  8.320569  0.337301
352   1 0.0000 30.187708  9.206188  5.492909
353   1 0.0000 33.205121 10.091806 10.648517
354   1 0.0000 36.222533 10.977425 15.804126
355   1 0.0000 39.239946 11.863044 20.959734
356   1 0.0000 30.183286 18.601152  0.337301
357   1 0.0000 33.200698 19.486771  5.492909
358   1 0.0000 36.218110 20.372390 10.648517
359   1 0.0000 39.235523 21.258008 15.804126
360   1 0.0000 42.252935 22.143627 20.959734
361   1 0.0000 33.196275 28.881735  0.337301
362   1 0.0000 36.213688 29.767354  5.492909
363   1 0.0000 39.231100 30.652973 10.648517
364   1 0.0000 42.248512 31.538592 15.804126
365   1 0.0000 45.265925 32.424210 20.959734
366   1 0.0000 36.209265 39.162318  0.337301
367   1 0.0000 39.226677 40.047937  5.492909
368   1 0.0000 42.244090 40.933556 10.648517
369   1 0.0000 45.261502 41.819175 15.804126
370   1 0.0000 48.278914 42.704794 20.959734
371   1 0.0000 39.222254 49.442901  0.337301
372   1 0.0000 42.239667 50.328520  5.492909
373   1 0.0000 45.257079 51.214139 10.648517
374   1 0.0000 48.274491 52.099758 15.804126
375   1 0.0000 51.291904 52.985377 20.959734
376   1 0.0000  6.035733  3.623278  2.915022
377   1 0.0000  9.053145  4.508897  8.070631
378   1 0.0000 12.070558  5.394516 13.226239
379   1 0.0000 15.087970  6.280135 18.381847
380   1 0.0000 18.105382  7.165754 23.537456
381   1 0.0000  9.048723 13.903861  2.915022
382   1 0.0000 12.066135 14.789480  8.070631
383   1 0.0000 15.083547 15.675099 13.226239
384   1 0.0000 18.100960 16.560718 18.381847
385   1 0.0000 21.118372 17.446337 23.537456
386   1 0.0000 12.061712 24.184444  2.915022
387   1 0.0000 15.079125 25.070063  8.070631
388   1 0.0000 18.096537 25.955682 13.226239
389   1 0.0000 21.113949 26.841301 18.381847
390   1 0.0000 24.131362 27.726920 23.537456
391   1 0.0000 15.074702 34.465027  2.915022
392   1 0.0000 18.092114 35.350646  8.070631
393   1 0.0000 21.109526 36.236265 13.226239
394   1 0.0000 24.126939 37.121884 18.381847
395   1 0.0000 27.144351 38.007503 23.537456
396   1 0.0000 18.087691 44.745611  2.915022
397   1 0.0000 21.105104 45.631229  8.070631
398   1 0.0000 24.122516 46.516848 13.226239
399   1 0.0000 27.139928 47.402467 18.381847
400   1 0.0000 30.157341 48.288086 23.537456
401   1 0.0000 12.074786  3.623278  2.915022
402   1 0.0000 15.092198  4.508897  8.070631
403   1 0.0000 18.109610  5.394516 13.226239
404   1 0.0000 21.127023  6.280135 18.381847
405   1 0.0000 24.144435  7.165754 23.537456
406   1 0.0000 15.087775 13.903861  2.915022
407   1 0.0000 18.105187 14.789480  8.070631
408   1 0.0000 21.122600 15.675099 13.226239
409   1 0.0000 24.140012 16.560718 18.381847
410   1 0.0000 27.157425 17.446337 23.537456
411   1 0.0000 18.100765 24.184444  2.915022
412   1 0.0000 21.118177 25.070063  8.070631
413   1 0.0000 24.135589 25.955682 13.226239
414   1 0.0000 27.153002 26.841301 18.381847
415   1 0.0000 30.170414 27.726920 23.537456
416   1 0.0000 21.113754 34.465027  2.915022
417   1 0.0000 24.131167 35.350646  8.070631
418   1 0.0000 27.148579 36.236265 13.226239
419   1 0.0000 30.165991 37.121884 18.381847
420   1 0.0000 33.183404 38.007503 23.537456
421   1 0.0000 24.126744 44.745611  2.915022
422   1 0.0000 27.144156 45.631229  8.070631
423   1 0.0000 30.161569 46.516848 13.226239
424   1 0.0000 33.178981 47.402467 18.381847
425   1 0.0000 36.196393 48.288086 23.537456
426   1 0.0000 18.113838  3.623278  2.915022
427   1 0.0000 21.131250  4.508897  8.070631
428   1 0.0000 24.148663  5.394516 13.226239
429   1 0.0000 27.166075  6.280135 18.381847
430   1 0.0000 30.183487  7.165754 23.537456
431   1 0.0000 21.126828 13.903861  2.915022
432   1 0.0000 24.144240 14.789480  8.070631
433   1 0.0000 27.161652 15.675099 13.226239
434   1 0.0000 30.179065 16.560718 18.381847
435   1 0.0000 33.196477 17.446337 23.537456
436   1 0.0000 24.139817 24.184444  2.915022
437   1 0.0000 27.157230 25.070063  8.070631
438   1 0.0000 30.174642 25.955682 13.226239
439   1 0.0000 33.192054 26.841301 18.381847
440   1 0.0000 36.209467 27.726920 23.537456
441   1 0.0000 27.152807 34.465027  2.915022
442   1 0.0000 30.170219 35.350646  8.070631
443   1 0.0000 33.187631 36.236265 13.226239
444   1 0.0000 36.205044 37.121884 18.381847
445   1 0.0000 39.222456 38.007503 23.537456
446   1 0.0000 30.165796 44.745611  2.915022
447   1 0.0000 33.183209 45.631229  8.070631
448   1 0.0000 36.200621 46.516848 13.226239
449   1 0.0000 39.218033 47.402467 18.381847
450   1 0.0000 42.235446 48.288086 23.537456
451   1 0.0000 24.152891  3.623278  2.915022
452   1 0.0000 27.170303  4.508897  8.070631
453   1 0.0000 30.187715  5.394516 13.226239
454   1 0.0000 33.205128  6.280135 18.381847
455   1 0.0000 36.222540  7.165754 23.537456
456   1 0.0000 27.165880 13.903861  2.915022
457   1 0.0000 30.183292 14.789480  8.070631
458   1 0.0000 33.200705 15.675099 13.226239
459   1 0.0000 36.218117 16.560718 18.381847
460   1 0.0000 39.235530 17.446337 23.537456
461   1 0.0000 30.178870 24.184444  2.915022
462   1 0.0000 33.196282 25.070063  8.070631
463   1 0.0000 36.213694 25.955682 13.226239
464   1 0.0000 39.231107 26.841301 18.381847
465   1 0.0000 42.248519 27.726920 23.537456
466   1 0.0000 33.191859 34.465027  2.915022
467   1 0.0000 36.209272 35.350646  8.070631
468   1 0.0000 39.226684 36.236265 13.226239
469   1 0.0000 42.244096 37.121884 18.381847
470   1 0.0000 45.261509 38.007503 23.537456
471   1 0.0000 36.204849 44.745611  2.915022
472   1 0.0000 39.222261 45.631229  8.070631
473   1 0.0000 42.239674 46.516848 13.226239
474   1 0.0000 45.257086 47.402467 18.381847
475   1 0.0000 48.274498 48.288086 23.537456
476   1 0.0000 30.191943  3.623278  2.915022
477   1 0.0000 33.209355  4.508897  8.070631
478   1 0.0000 36.226768  5.394516 13.226239
479   1 0.0000 39.244180  6.280135 18.381847
480   1 0.0000 42.261593  7.165754 23.537456
481   1 0.0000 33.204933 13.903861  2.915022
482   1 0.0000 36.222345 14.789480  8.070631
483   1 0.0000 39.239757 15.675099 13.226239
484   1 0.0000 42.257170 16.560718 18.381847
485   1 0.0000 45.274582 17.446337 23.537456
486   1 0.0000 36.217922 24.184444  2.915022
487   1 0.0000 39.235335 25.070063  8.070631
488   1 0.0000 42.252747 25.955682 13.226239
489   1 0.0000 45.270159 26.841301 18.381847
490   1 0.0000 48.287572 27.726920 23.537456
491   1 0.0000 39.230912 34.465027  2.915022
492   1 0.0000 42.248324 35.350646  8.070631
493   1 0.0000 45.265737 36.236265 13.226239
494   1 0.0000 48.283149 37.121884 18.381847
495   1 0.0000 51.300561 38.007503 23.537456
496   1 0.0000 42.243901 44.745611  2.915022
497   1 0.0000 45.261314 45.631229  8.070631
498   1 0.0000 48.278726 46.516848 13.226239
499   1 0.0000 51.296138 47.402467 18.381847
500   1 0.0000 54.313551 48.288086 23.537456
501   2 0.0000 19.593174 51.845725  2.577804
502   2 0.0000 22.610587 52.731344  7.733413
503   2 0.0000 25.627999 53.616963 12.889021
504   2 0.0000 28.645411 54.502582 18.044629
505   2 0.0000 31.662824 55.388201 23.200238
506   2 0.0000  7.541216 10.723393  2.577804
507   2 0.0000 10.558628 11.609011  7.733413
508   2 0.0000 13.576041 12.494630 12.889021
509   2 0.0000 16.593453 13.380249 18.044629
510   2 0.0000 19.610865 14.265868 23.200238
511   2 0.0000 10.554206 21.003976  2.577804
512   2 0.0000 13.571618 21.889595  7.733413
513   2 0.0000 16.589030 22.775213 12.889021
514   2 0.0000 19.606443 23.660832 18.044629
515   2 0.0000 22.623855 24.546451 23.200238
516   2 0.0000 13.567195 31.284559  2.577804
517   2 0.0000 16.584607 32.170178  7.733413
518   2 0.0000 19.602020 33.055797 12.889021
519   2 0.0000 22.619432 33.941415 18.044629
520   2 0.0000 25.636845 34.827034 23.200238
521   2 0.0000 16.580185 41.565142  2.577804
522   2 0.0000 19.597597 42.450761  7.733413
523   2 0.0000 22.615009 43.336380 12.889021
524   2 0.0000 25.632422 44.221999 18.044629
525   2 0.0000 28.649834 45.107617 23.200238
526   2 0.0000 25.632227 51.845725  2.577804
527   2 0.0000 28.649639 52.731344  7.733413
528   2 0.0000 31.667052 53.616963 12.889021
529   2 0.0000 34.684464 54.502582 18.044629
530   2 0.0000 37.701876 55.388201 23.200238
531   2 0.0000 13.580268 10.723393  2.577804
532   2 0.0000 16.597681 11.609011  7.733413
533   2 0.0000 19.615093 12.494630 12.889021
534   2 0.0000 22.632506 13.380249 18.044629
535   2 0.0000 25.649918 14.265868 23.200238
536   2 0.0000 16.593258 21.003976  2.577804
537   2 0.0000 19.610670 21.889595  7.733413
538   2 0.0000 22.628083 22.775213 12.889021
539   2 0.0000 25.645495 23.660832 18.044629
540   2 0.0000 28.662908 24.546451 23.200238
541   2 0.0000 19.606248 31.284559  2.577804
542   2 0.0000 22.623660 32.170178  7.733413
543   2 0.0000 25.641072 33.055797 12.889021
544   2 0.0000 28.658485 33.941415 18.044629
545   2 0.0000 31.675897 34.827034 23.200238
546   2 0.0000 22.619237 41.565142  2.577804
547   2 0.0000 25.636650 42.450761  7.733413
548   2 0.0000 28.654062 43.336380 12.889021
549   2 0.0000 31.671474 44.221999 18.044629
550   2 0.0000 34.688887 45.107617 23.200238
551   2 0.0000 31.671279 51.845725  2.577804
552   2 0.0000 34.688692 52.731344  7.733413
553   2 0.0000 37.706104 53.616963 12.889021
554   2 0.0000 40.723516 54.502582 18.044629
555   2 0.0000 43.740929 55.388201 23.200238
556   2 0.0000 19.619321 10.723393  2.577804
557   2 0.0000 22.636733 11.609011  7.733413
558   2 0.0000 25.654146 12.494630 12.889021
559   2 0.0000 28.671558 13.380249 18.044629
560   2 0.0000 31.688970 14.265868 23.200238
561   2 0.0000 22.632311 21.003976  2.577804
562   2 0.0000 25.649723 21.889595  7.733413
563   2 0.0000 28.667135 22.775213 12.889021
564   2 0.0000 31.684548 23.660832 18.044629
565   2 0.0000 34.701960 24.546451 23.200238
566   2 0.0000 25.645300 31.284559  2.577804
567   2 0.0000 28.662713 32.170178  7.733413
568   2 0.0000 31.680125 33.055797 12.889021
569   2 0.0000 34.697537 33.941415 18.044629
570   2 0.0000 37.714950 34.827034 23.200238
571   2 0.0000 28.658290 41.565142  2.577804
572   2 0.0000 31.675702 42.450761  7.733413
573   2 0.0000 34.693114 43.336380 12.889021
574   2 0.0000 37.710527 44.221999 18.044629
575   2 0.0000 40.727939 45.107617 23.200238
576   2 0.0000 37.710332 51.845725  2.577804
577   2 0.0000 40.727744 52.731344  7.733413
578   2 0.0000 43.745157 53.616963 12.889021
579   2 0.0000 46.762569 54.502582 18.044629
580   2 0.0000 49.779981 55.388201 23.200238
581   2 0.0000 25.658374 10.723393  2.577804
582   2 0.0000 28.675786 11.609011  7.733413
583   2 0.0000 31.693198 12.494630 12.889021
584   2 0.0000 34.710611 13.380249 18.044629
585   2 0.0000 37.728023 14.265868 23.200238
586   2 0.0000 28.671363 21.003976  2.577804
587   2 0.0000 31.688775 21.889595  7.733413
588   2 0.0000 34.706188 22.775213 12.889021
589   2 0.0000 37.723600 23.660832 18.044629
590   2 0.0000 40.741013 24.546451 23.200238
591   2 0.0000 31.684353 31.284559  2.577804
592   2 0.0000 34.701765 32.170178  7.733413
593   2 0.0000 37.719177 33.055797 12.889021
594   2 0.0000 40.736590 33.941415 18.044629
595   2 0.0000 43.754002 34.827034 23.200238
596   2 0.0000 34.697342 41.565142  2.577804
597   2 0.0000 37.714755 42.450761  7.733413
598   2 0.0000 40.732167 43.336380 12.889021
599   2 0.0000 43.749579 44.221999 18.044629
600   2 0.0000 46.766992 45.107617 23.200238
601   2 0.0000 43.749384 51.845725  2.577804
602   2 0.0000 46.766797 52.731344  7.733413
603   2 0.0000 49.784209 53.616963 12.889021
604   2 0.0000 52.801621 54.502582 18.044629
605   2 0.0000 55.819034 55.388201 23.200238
606   2 0.0000 31.697426 10.723393  2.577804
607   2 0.0000 34.714838 11.609011  7.733413
608   2 0.0000 37.732251 12.494630 12.889021
609   2 0.0000 40.749663 13.380249 18.044629
610   2 0.0000 43.767075 14.265868 23.200238
611   2 0.0000 34.710416 21.003976  2.577804
612   2 0.0000 37.727828 21.889595  7.733413
613   2 0.0000 40.745240 22.775213 12.889021
614   2 0.0000 43.762653 23.660832 18.044629
615   2 0.0000 46.780065 24.546451 23.200238
616   2 0.0000 37.723405 31.284559  2.577804
617   2 0.0000 40.740818 32.170178  7.733413
618   2 0.0000 43.758230 33.055797 12.889021
619   2 0.0000 46.775642 33.941415 18.044629
620   2 0.0000 49.793055 34.827034 23.200238
621   2 0.0000 40.736395 41.565142  2.577804
622   2 0.0000 43.753807 42.450761  7.733413
623   2 0.0000 46.771219 43.336380 12.889021
624   2 0.0000 49.788632 44.221999 18.044629
625   2 0.0000 52.806044 45.107617 23.200238
626   2 0.0000  6.032510 10.280574  0.000005
627   2 0.0000  9.049922 11.166193  5.155614
628   2 0.0000 12.067335 12.051811 10.311222
629   2 0.0000 15.084747 12.937430 15.466830
630   2 0.0000 18.102159 13.823049 20.622439
631   2 0.0000  9.045499 20.561157  0.000005
632   2 0.0000 12.062912 21.446776  5.155614
633   2 0.0000 15.080324 22.332395 10.311222
634   2 0.0000 18.097736 23.218013 15.466830
635   2 0.0000 21.115149 24.103632 20.622439
636   2 0.0000 12.058489 30.841740  0.000005
637   2 0.0000 15.075901 31.727359  5.155614
638   2 0.0000 18.093314 32.612978 10.311222
639   2 0.0000 21.110726 33.498597 15.466830
640   2 0.0000 24.128138 34.384215 20.622439
641   2 0.0000 15.071479 41.122323  0.000005
642   2 0.0000 18.088891 42.007942  5.155614
643   2 0.0000 21.106303 42.893561 10.311222
644   2 0.0000 24.123716 43.779180 15.466830
645   2 0.0000 27.141128 44.664799 20.622439
646   2 0.0000 18.084468 51.402906  0.000005
647   2 0.0000 21.101880 52.288525  5.155614
648   2 0.0000 24.119293 53.174144 10.311222
649   2 0.0000 27.136705 54.059763 15.466830
650   2 0.0000 30.154118 54.945382 20.622439
651   2 0.0000 12.071562 10.280574  0.000005
652   2 0.0000 15.088975 11.166193  5.155614
653   2 0.0000 18.106387 12.051811 10.311222
654   2 0.0000 21.123799 12.937430 15.466830
655   2 0.0000 24.141212 13.823049 20.622439
656   2 0.0000 15.084552 20.561157  0.000005
657   2 0.0000 18.101964 21.446776  5.155614
658   2 0.0000 21.119377 22.332395 10.311222
659   2 0.0000 24.136789 23.218013 15.466830
660   2 0.0000 27.154201 24.103632 20.622439