Generated by pymatgen.io.lammps.data.LammpsData

3888  atoms

   4  atom types

0.000000 34.467276  xlo xhi
0.000000 35.320344  ylo yhi
0.000000 56.197284  zlo zhi
2.136102 13.449792 4.775052  xy xz yz

Masses

1  132.905452
2    6.941000
3   72.640000
4   15.999400

Atoms

1     1  0.7900  8.148505  0.647984  5.841532
2     1  0.7900 24.336058 14.550246  1.774115
3     4 -1.1825 31.809251 14.540870  0.071314
4     1  0.7900  6.569211 10.510414 10.847313
5     1  0.7900  2.781290 11.782686  7.200931
6     4 -1.1825  8.607277  3.263499  6.383115
7     4 -1.1825  2.810972  7.546018  2.763497
8     4 -1.1825  7.577456  5.271609  8.385714
9     4 -1.1825 28.246639 18.474736 14.758351
10    3  2.1000 11.936729  3.418569 15.135304
11    4 -1.1825  5.654242  5.812976  3.923057
12    4 -1.1825 19.440669  8.404345  2.625578
13    4 -1.1825 36.888070  4.164455 10.697662
14    4 -1.1825 34.634177 17.568756  2.584355
15    4 -1.1825 37.058814  5.787497 13.664992
16    4 -1.1825 18.084679  5.684595  0.799483
17    4 -1.1825  1.930067  6.433627  0.715516
18    2  0.5250  9.196235  2.026362  0.989322
19    2  0.5250 34.676740 13.313566  3.299808
20    2  0.5250 11.620765  6.554341  4.736381
21    4 -1.1825  7.669967 18.871851 18.727125
22    4 -1.1825  4.890733  8.320146  1.021136
23    2  0.5250 35.390506  2.088467 11.299020
24    4 -1.1825  4.197045 11.472264 11.650958
25    2  0.5250 27.149420  1.890689 14.119577
26    1  0.7900  5.673072  3.397217  7.163542
27    1  0.7900  5.501130  2.809345  3.355097
28    2  0.5250 31.585569 14.462605  8.637428
29    4 -1.1825  7.919925  5.407806  2.850669
30    3  2.1000  7.971302  5.477927  5.896417
31    1  0.7900  3.124325  4.935876  3.617574
32    4 -1.1825 27.579986 11.455153  2.456679
33    1  0.7900 11.891933  2.800174  2.433565
34    4 -1.1825 10.020300  1.810480  4.678769
35    4 -1.1825 17.438999  5.315405 11.099771
36    3  2.1000  8.173254  8.282731  6.820550
37    1  0.7900 21.696587  3.629715  2.424472
38    1  0.7900 33.895484  4.592581  0.138963
39    4 -1.1825 21.512533  7.203746  3.191004
40    1  0.7900 20.023257  1.813983 17.136095
41    2  0.5250 23.185429 14.638704 17.252657
42    2  0.5250 18.994069  5.818651  4.036155
43    1  0.7900 16.222181 10.709443  6.714735
44    2  0.5250  8.311299  9.903389  4.502614
45    4 -1.1825 15.250761  5.890546  2.391500
46    1  0.7900 15.559658  3.912175  0.290622
47    4 -1.1825 15.188053  7.804077 13.667854
48    2  0.5250 23.920916 13.434548  3.713952
49    2  0.5250  6.838720  3.849821  1.276382
50    1  0.7900 19.778947 15.195414  6.168048
51    3  2.1000 26.123015  8.801723  3.312517
52    1  0.7900 30.686255  8.548096  0.343315
53    2  0.5250 12.655704  1.679234  8.547428
54    4 -1.1825 11.083317 10.718567 10.994604
55    3  2.1000 13.817057  1.228478  6.018337
56    4 -1.1825 14.002726  8.041386  1.014380
57    1  0.7900 11.996785  7.046093  1.933212
58    3  2.1000 29.085796 17.859076  2.557727
59    4 -1.1825  4.144626  2.531782  5.458514
60    3  2.1000  7.531773  2.751136  4.127853
61    2  0.5250 24.543934 10.082469  0.442829
62    1  0.7900 13.148655  3.824948  7.741822
63    1  0.7900 15.363281 12.511134  5.388048
64    4 -1.1825 33.930399  3.906932  2.382395
65    2  0.5250  9.843282  4.589742  3.867608
66    4 -1.1825 10.520388  5.442604  6.453388
67    4 -1.1825 14.339125  5.163311  5.629876
68    1  0.7900 12.152833  7.233541 12.461832
69    2  0.5250 17.123348  2.437103 16.597336
70    4 -1.1825 33.372767  0.154278  0.839334
71    1  0.7900 17.857229  7.833205  5.151203
72    3  2.1000 27.841832  3.904686  5.452326
73    2  0.5250 18.265684 18.472738 10.047386
74    2  0.5250 18.165598  3.385185  8.409397
75    1  0.7900 28.900437  4.951370  8.835843
76    2  0.5250 16.850791  8.900348  7.187557
77    4 -1.1825 14.588166 14.442795  0.866010
78    1  0.7900 21.187518  2.288874  0.274841
79    4 -1.1825 28.203283  2.308929  0.495784
80    2  0.5250 25.409541  2.495975  3.692283
81    1  0.7900 16.594564  0.731770  5.089817
82    2  0.5250  2.368562 15.646570  0.984025
83    2  0.5250  7.329594 13.719206  2.462735
84    4 -1.1825  9.347970 16.533921  1.753810
85    2  0.5250 14.294840 14.754965  6.673422
86    1  0.7900 30.035226  2.363369 17.413831
87    3  2.1000 24.028609  3.148021  7.074822
88    4 -1.1825 15.501859  1.852028  1.535787
89    3  2.1000 18.821420  0.695212  0.582958
90    4 -1.1825  8.536676 18.564900 16.107972
91    2  0.5250 17.123210  2.971133  3.591999
92    4 -1.1825 22.015932  9.335526  1.428039
93    4 -1.1825 33.188106  4.366047  6.965013
94    1  0.7900 28.245474 10.122615  0.030864
95    4 -1.1825  5.254433 15.015541  4.980184
96    1  0.7900  9.938373 14.459910  2.391823
97    2  0.5250 23.133728  8.781121  4.020058
98    2  0.5250 22.087888  8.257932  7.566209
99    1  0.7900 20.998079 11.422687  2.454462
100   4 -1.1825  5.452476  8.088252  3.333425
101   4 -1.1825 22.290398 11.883465 16.386514
102   4 -1.1825 30.312936 11.174122  3.334701
103   4 -1.1825 29.733052  2.035352  3.353883
104   2  0.5250 19.752474 10.503186  4.783884
105   2  0.5250 21.464677 16.348435 16.715162
106   4 -1.1825 31.013329  2.286909  5.775885
107   4 -1.1825 31.915213  6.438936  2.353844
108   4 -1.1825  4.147980  3.132033  1.020088
109   4 -1.1825 13.013595  1.707124  0.363219
110   1  0.7900 18.024575  5.760106 13.982988
111   2  0.5250  5.772192  7.642907  6.814969
112   2  0.5250 27.935572  8.955217  2.160253
113   1  0.7900 10.044380  5.551691  1.215891
114   4 -1.1825 27.399684  6.224749  1.572838
115   1  0.7900 15.406446 17.223560  1.252287
116   4 -1.1825 14.388740  2.399738  9.872724
117   1  0.7900 13.712405  1.153885  3.439359
118   4 -1.1825 27.225021 16.477333 14.705876
119   3  2.1000 16.487469 15.968931  3.169909
120   4 -1.1825 32.520587  8.319203  4.867434
121   2  0.5250 26.878548  6.451076  9.119838
122   2  0.5250 31.850871  9.526091  2.339397
123   3  2.1000 23.930451 13.849687  8.911753
124   4 -1.1825 30.654371  8.537294  8.139285
125   1  0.7900 25.645246 10.854484 10.901008
126   1  0.7900  2.377794  9.844301  0.229908
127   4 -1.1825 30.975625  6.588533  6.414889
128   4 -1.1825 19.031098  0.975390  4.051247
129   2  0.5250 26.812074 18.209210 10.052473
130   3  2.1000 29.012054  7.249297  9.593485
131   4 -1.1825 28.366983  3.817507 13.822818
132   4 -1.1825 27.263848  6.210983  4.057839
133   4 -1.1825 17.114727  8.673453 12.618495
134   2  0.5250 20.031155  5.240133  1.411131
135   4 -1.1825 12.328653 14.665648  2.149240
136   4 -1.1825 30.855048  3.048414  1.618518
137   1  0.7900  2.467571  1.076096  3.145791
138   1  0.7900 34.876286  3.394218  4.814525
139   1  0.7900 27.753229 13.827963  6.050496
140   2  0.5250 27.094614  6.784606  6.768687
141   2  0.5250 12.589079  5.130788  0.202544
142   4 -1.1825 23.398879  5.663088  7.416760
143   3  2.1000 34.710254  9.104888 10.203811
144   4 -1.1825 21.070014  5.470596  8.930179
145   4 -1.1825 27.718852 18.159265 18.292203
146   2  0.5250  2.161044  4.556904  6.235977
147   2  0.5250 32.950271  6.975948  8.842781
148   2  0.5250  3.752382  6.254342  6.576664
149   2  0.5250 29.426976  1.397140 11.661645
150   2  0.5250 32.289027 10.672670  5.281420
151   2  0.5250 30.002361  4.520610  4.151139
152   4 -1.1825 34.730004  8.652034  0.753498
153   3  2.1000  9.793543  3.548575 17.395902
154   2  0.5250 16.049148  3.079023  6.364126
155   4 -1.1825 11.258946 13.396110  0.382046
156   4 -1.1825 35.250375  5.231068  8.053992
157   4 -1.1825 34.065793  6.400925  5.567138
158   1  0.7900 34.082926 15.467844 10.306527
159   2  0.5250 31.150391  5.903168 11.667723
160   4 -1.1825  3.999821 12.498636  5.432314
161   4 -1.1825  1.852283  7.275656  4.896598
162   1  0.7900 34.436125  6.532148  3.144392
163   4 -1.1825 16.794963 15.927055  5.931216
164   1  0.7900 11.119509  2.097127 18.517846
165   2  0.5250 35.229889  8.099554  7.005299
166   2  0.5250 10.992188 10.056432  5.487153
167   4 -1.1825 25.582394  2.169243  0.662302
168   3  2.1000  5.772000 12.288870  4.083381
169   3  2.1000  5.383669 10.963576  8.941536
170   1  0.7900 32.053702 16.861053  0.815103
171   4 -1.1825  9.838893 13.569550  5.232806
172   2  0.5250 13.614582  5.283292  9.736444
173   2  0.5250  7.471869  9.123617  9.078816
174   4 -1.1825  3.666767  8.969763  5.935260
175   3  2.1000  2.914934 14.758002  6.653421
176   2  0.5250 27.554625  6.118238 15.249266
177   4 -1.1825 16.563133 16.477613  8.456567
178   3  2.1000  9.219053  7.241415  8.587662
179   4 -1.1825 12.984535  9.975998  8.117970
180   4 -1.1825  8.348849 16.883979  5.200424
181   4 -1.1825  3.508923 13.849236  2.900505
182   4 -1.1825 31.859286 15.285034  3.593469
183   4 -1.1825 36.769377  7.055114 10.381277
184   4 -1.1825  2.932080 16.200646  3.512426
185   2  0.5250 25.288019  1.216894  8.648629
186   4 -1.1825  6.260249  1.375664 12.171767
187   2  0.5250 10.904222  8.177595  6.523622
188   1  0.7900  7.004696 17.336467 10.427128
189   4 -1.1825 23.999443 16.782566  3.282410
190   4 -1.1825 26.996371 16.753847  2.269410
191   4 -1.1825 35.617969 10.072527  2.443453
192   3  2.1000 24.658437  4.994116  1.240558
193   4 -1.1825 10.556000 16.899102  6.186176
194   3  2.1000 14.106260  7.441381  6.013150
195   4 -1.1825 21.632154  1.728712 10.096607
196   4 -1.1825 15.459429  4.682222  9.169902
197   3  2.1000 13.039388  8.717793  3.964482
198   4 -1.1825  8.728798  4.870733 15.804021
199   2  0.5250 19.363517 10.465211  0.338365
200   4 -1.1825 13.283102 11.055476  5.633564
201   4 -1.1825 12.065434 14.485874  9.299686
202   4 -1.1825 17.965364 17.238444 12.311461
203   4 -1.1825 10.545131 16.161022  8.230439
204   4 -1.1825  7.659551 11.663921  6.164861
205   4 -1.1825  3.896311 11.113459  2.394956
206   1  0.7900 17.174434  7.497115  2.117249
207   2  0.5250 12.750936 12.004043  3.342654
208   4 -1.1825  7.134262  9.842803  1.667469
209   3  2.1000 18.824238 12.485922  6.845447
210   4 -1.1825 15.503554  7.432566  8.490874
211   4 -1.1825  9.670233  9.889843  8.229631
212   4 -1.1825 10.558129 11.782084  3.171535
213   1  0.7900 24.018344 16.423256  0.107687
214   1  0.7900 15.991058  9.624351 18.559352
215   4 -1.1825  9.723720  7.658004  4.037147
216   2  0.5250 26.167090  1.386215  6.536813
217   4 -1.1825 12.518051  8.559725 10.424061
218   4 -1.1825 27.614082 15.188314  3.873543
219   2  0.5250 11.650585 12.161477  7.263698
220   3  2.1000 23.336826 16.798950 17.758564
221   4 -1.1825  7.769201 16.107296  7.895982
222   1  0.7900 11.641142 13.452663 12.210690
223   1  0.7900  9.017105 15.468911 10.395482
224   3  2.1000 27.206632  3.112326  2.714245
225   4 -1.1825 20.339029 13.451281  9.305115
226   4 -1.1825 14.960058 14.621181 10.908285
227   1  0.7900  6.740057 15.276267 12.327316
228   4 -1.1825 36.542369 15.872783 11.734397
229   3  2.1000  5.525035 10.418070  6.569291
230   1  0.7900 26.736314 17.411348 12.584719
231   4 -1.1825 29.738929  5.576220  1.455775
232   3  2.1000 31.479685  4.658113  0.069013
233   2  0.5250  3.607542  2.407751 12.660799
234   1  0.7900 21.275696  6.040625  5.313114
235   1  0.7900 30.215391  3.442950 11.435847
236   4 -1.1825 17.253383 10.132052  2.152944
237   1  0.7900 16.972621 11.640189  0.264584
238   2  0.5250 14.122687 13.275905  8.668155
239   1  0.7900 17.689432 13.931903  5.096957
240   3  2.1000 24.771253 16.625392  8.845263
241   1  0.7900 16.779541 13.865010  7.487866
242   1  0.7900 26.431188 13.081089  3.926329
243   4 -1.1825 23.803171  7.001025  1.714579
244   4 -1.1825 21.651345 12.143083  7.204085
245   2  0.5250 22.005941  2.901930  5.247549
246   1  0.7900  9.054022  7.759287  0.176329
247   2  0.5250 14.807600 10.339364  2.259797
248   1  0.7900 15.451277  9.250279  4.445886
249   4 -1.1825 27.480557 11.069391  5.258407
250   1  0.7900 12.302453 13.949467  5.972291
251   4 -1.1825 21.988663  9.936180  6.265572
252   2  0.5250 19.841064 14.236925  3.239031
253   2  0.5250 17.465359 12.085298  9.007375
254   4 -1.1825 29.129216 14.634651 18.149800
255   4 -1.1825 16.673543 13.208520  2.769929
256   4 -1.1825 32.889110 10.300802  0.149733
257   2  0.5250 35.105051  7.250709 16.872664
258   4 -1.1825  9.053609 12.152779  1.425395
259   4 -1.1825 18.768153  3.115907  1.731730
260   2  0.5250 14.116606  4.016550 16.106412
261   1  0.7900 14.216235 16.224459  8.360756
262   4 -1.1825 31.945830  4.555332 15.744929
263   4 -1.1825 20.212546  4.254259  6.851575
264   4 -1.1825 21.246794 15.611801  1.067784
265   3  2.1000 20.236404 10.908601  9.549331
266   2  0.5250 15.015935 17.052135 11.085886
267   2  0.5250 35.778785  3.219136 15.867538
268   1  0.7900 15.431790 11.947968 10.995119
269   1  0.7900 20.147304  8.507018  5.229000
270   2  0.5250 25.098688 11.736198  2.165371
271   1  0.7900 30.257156 13.195399  4.656290
272   2  0.5250 27.496460  8.822256  5.119275
273   4 -1.1825 22.381475 14.990931  6.233308
274   4 -1.1825  6.702430  4.552171 11.659992
275   4 -1.1825 26.608025 15.657503 17.242709
276   2  0.5250 35.824750 17.927462 12.349698
277   1  0.7900 35.560352 17.447654  9.792411
278   4 -1.1825 33.826602  2.536484  8.720068
279   2  0.5250 28.988858 15.307695  0.777887
280   2  0.5250 28.738522  2.076145  6.961676
281   1  0.7900 26.930663 11.576937  7.688060
282   2  0.5250 13.868968 14.874029  3.773441
283   1  0.7900 28.623595 16.510333 10.233651
284   1  0.7900  5.162608 15.821766  0.969622
285   4 -1.1825 15.750078  6.479709  4.779308
286   4 -1.1825 27.599545  8.930375 11.087630
287   4 -1.1825 31.061395 11.759061  8.407381
288   1  0.7900 24.131311 10.734530  4.756572
289   1  0.7900 33.697493 11.096865  3.374890
290   4 -1.1825 17.442702 11.245584  4.023485
291   1  0.7900 14.071356  2.769857 18.568338
292   4 -1.1825 29.368771 12.801688  1.305928
293   1  0.7900 34.278007 15.184425  1.210684
294   1  0.7900 33.160774  2.186514 16.992433
295   4 -1.1825 18.691414 12.290296  2.274363
296   4 -1.1825 16.432539  1.714753  8.893485
297   4 -1.1825 24.933628 10.460333  8.794492
298   1  0.7900 33.014063 13.097701  5.115511
299   4 -1.1825 31.594615  8.297755 10.369394
300   3  2.1000 17.734101  4.890252  6.102447
301   1  0.7900 31.344405 18.465115 13.484164
302   3  2.1000 30.267628  7.756946 12.752429
303   1  0.7900 29.011722 10.153464  8.297310
304   4 -1.1825 22.092641 12.770677 12.872825
305   1  0.7900 21.184937 12.491216  4.834208
306   1  0.7900 24.604850  7.714841  8.881136
307   1  0.7900 29.850070 11.229868  5.901627
308   1  0.7900  2.046409 11.681685  4.743071
309   1  0.7900 24.180674 12.353716  6.433888
310   4 -1.1825  4.968038  2.776744  9.681630
311   1  0.7900  4.631042  9.084076 16.079498
312   4 -1.1825 29.949740  6.769957  4.277745
313   2  0.5250 35.136222  9.635723  4.927804
314   2  0.5250 11.459365 16.309533  0.555572
315   3  2.1000  3.115653 10.654476  9.473365
316   4 -1.1825 33.447889 10.640036  7.990099
317   4 -1.1825 33.863371 12.809959  0.396379
318   2  0.5250 32.380203  4.668671  4.664464
319   4 -1.1825 24.977737  4.027720 12.725886
320   3  2.1000 18.982156 14.323089 16.974369
321   1  0.7900 29.903502  4.309040  6.809068
322   1  0.7900 35.313012 14.872658  4.420316
323   4 -1.1825 26.568643 17.096632  6.146026
324   4 -1.1825 27.487237 14.969456 12.188793
325   2  0.5250 32.149013 12.947090  2.474387
326   1  0.7900 13.125489  1.759905 12.010044
327   4 -1.1825  4.812558 15.655192 10.513083
328   3  2.1000 33.422463 17.224084  5.003994
329   3  2.1000 37.160612 11.412963 14.660289
330   4 -1.1825 16.619368  2.045734 13.389574
331   2  0.5250  3.571505  7.974026  8.451397
332   4 -1.1825 11.556824  5.469756 10.179209
333   4 -1.1825  7.486966 14.525537  5.494782
334   4 -1.1825 12.387896  3.388372  5.037977
335   4 -1.1825 12.479269 18.147798 15.258781
336   4 -1.1825 21.622182 17.263732 14.076552
337   4 -1.1825 10.194724  1.369688  9.101924
338   2  0.5250  7.103103  9.209909 12.838305
339   3  2.1000  3.847034  5.537938 11.817101
340   2  0.5250 32.372517  5.342510 13.435207
341   3  2.1000 11.736151 11.260627 13.360227
342   1  0.7900 33.969380  5.605527 15.096951
343   3  2.1000 33.676509  1.085909  6.377525
344   1  0.7900  5.196494 10.554138 14.085035
345   3  2.1000  4.883396  8.318618 11.118894
346   1  0.7900 32.507444  2.220443  4.066888
347   1  0.7900 37.899361  6.955396 16.775727
348   1  0.7900  6.311591  7.527579 18.063783
349   4 -1.1825 36.485763 16.065658 17.365135
350   4 -1.1825  5.300289  5.480604 16.700554
351   4 -1.1825  3.849641  4.438082  8.257300
352   1  0.7900 22.213815  1.239171  6.560801
353   4 -1.1825  5.461049  5.757392  9.315541
354   1  0.7900 15.602417  9.603078  9.693489
355   4 -1.1825  3.584916  8.281711 13.050026
356   4 -1.1825  8.064502  7.907041  2.391329
357   1  0.7900  6.297385  0.365413  4.066418
358   1  0.7900 10.257093  4.116499  8.847023
359   4 -1.1825  7.900194  6.583128 13.325406
360   2  0.5250 12.556424  4.693468 12.556156
361   3  2.1000  9.079082  7.948089 16.678743
362   2  0.5250 21.879902 14.100639 15.299401
363   4 -1.1825  7.037849  7.161540 10.956589
364   1  0.7900  7.853969  2.029616 16.818818
365   1  0.7900  6.710727  8.490936 15.652117
366   4 -1.1825 10.187265 10.039011 14.484552
367   1  0.7900 35.628027 13.375758 14.551731
368   3  2.1000  2.585808  2.517653  8.876771
369   1  0.7900  7.139205  3.349264 13.367955
370   4 -1.1825 36.313955 11.904664 17.535514
371   4 -1.1825  9.154832  5.684475 11.002136
372   4 -1.1825 23.038965 17.866344 12.014717
373   4 -1.1825 14.866106  7.174419 11.101468
374   1  0.7900  6.280078  1.744941  0.351943
375   4 -1.1825  8.001986 10.899020 15.512127
376   1  0.7900 35.664285  9.977246  8.057134
377   4 -1.1825 15.240851  2.117776 15.704543
378   1  0.7900 12.987926  7.577871  8.024910
379   4 -1.1825 37.536627  9.818327 17.426073
380   4 -1.1825  9.212583 12.723220 10.086284
381   4 -1.1825  7.341745  5.375930 17.642223
382   1  0.7900 14.822133  2.979698 11.962147
383   4 -1.1825  9.702222  2.845788 11.428123
384   3  2.1000 10.400250 16.091269 15.869692
385   4 -1.1825 33.414075 17.822996 11.476216
386   1  0.7900 33.082996 10.661766 10.967982
387   2  0.5250 32.660319  6.323701 18.074475
388   4 -1.1825  4.774346 13.274988  0.921316
389   2  0.5250 19.898656  9.171144 14.479555
390   1  0.7900 17.837720  3.186081 11.585455
391   2  0.5250 22.321930  3.089502  8.673460
392   4 -1.1825 23.781389 10.342949 14.082642
393   1  0.7900 19.061253  1.346581 10.430314
394   4 -1.1825 27.840064 13.110678 16.455680
395   4 -1.1825 26.596268  1.603471 11.481865
396   3  2.1000 10.155266 15.626375 18.347238
397   4 -1.1825 25.618042 11.027616 18.584969
398   1  0.7900  8.988320  8.913246 11.469691
399   3  2.1000 23.417779  1.371874 13.919336
400   4 -1.1825  5.228998 17.475159 16.660602
401   2  0.5250 18.342181  7.829026 17.886891
402   1  0.7900 34.155438 17.564183 14.372649
403   4 -1.1825 12.351201 18.506279 11.074826
404   4 -1.1825 26.984410  5.136341 17.757796
405   4 -1.1825 27.495943  2.391193  9.138815
406   1  0.7900 15.241748  4.674125 13.291980
407   4 -1.1825 21.029841  6.792627 16.791379
408   4 -1.1825 13.660791 12.067346  1.383094
409   1  0.7900 22.178315  5.715506 15.327763
410   2  0.5250 29.991426  8.937942 15.270125
411   4 -1.1825 10.462085 10.146361 16.873365
412   1  0.7900 19.691320  1.701481 14.403480
413   4 -1.1825 15.722605  5.709089 15.518145
414   1  0.7900 11.338582  5.949462 16.319407
415   4 -1.1825 32.350686 17.277273 16.277018
416   2  0.5250 25.053712  3.321740 15.133434
417   4 -1.1825 25.281188  7.408406 17.364262
418   4 -1.1825 22.789631  4.144832 10.956346
419   1  0.7900 11.485900 15.717799  4.312582
420   3  2.1000  9.332355  2.620351 15.002810
421   4 -1.1825 29.073897  7.208064 17.096983
422   3  2.1000 31.722256 11.826327 13.745416
423   1  0.7900 13.084733  8.721354 14.286679
424   4 -1.1825 31.703144 16.462433 14.391958
425   1  0.7900 23.799499  5.177481 17.200696
426   1  0.7900 32.600208  8.127897 15.518611
427   2  0.5250  5.413491 16.029454  7.819577
428   3  2.1000 27.559353  4.331070 11.606035
429   2  0.5250 38.145450 15.081122 16.248226
430   3  2.1000 38.014062 17.552098 18.587933
431   4 -1.1825 17.421209 17.745810 16.470326
432   4 -1.1825 31.628202 15.952500 10.470885
433   4 -1.1825  8.206582 14.090061 15.528927
434   2  0.5250 24.052118  2.049356 10.970702
435   4 -1.1825 27.640181 11.612463 14.866980
436   4 -1.1825 26.356962  8.280355 13.354963
437   2  0.5250 33.775500  7.357079 11.070257
438   3  2.1000 26.028784  8.131886  0.803159
439   4 -1.1825 30.694982  2.879462 14.310789
440   1  0.7900 24.040692  8.312351 15.236160
441   4 -1.1825 32.427492  3.235690 12.453324
442   1  0.7900 25.128696  3.794944 10.030591
443   3  2.1000 10.398201 17.406578 13.283871
444   1  0.7900 36.135589 15.244259  9.472334
445   2  0.5250 27.004699  8.984598  8.329893
446   4 -1.1825 26.752974  9.796438 16.747256
447   1  0.7900 31.182255  7.990052 17.860148
448   4 -1.1825 10.510551  9.551922  2.280186
449   4 -1.1825 22.291438  2.756860 17.274127
450   4 -1.1825 17.785461  7.918006 15.364484
451   4 -1.1825  4.704696  5.775334  1.734353
452   4 -1.1825 31.133814  2.638912  8.779435
453   4 -1.1825 25.804738  4.718740  8.040174
454   4 -1.1825 27.668907  3.296478 16.351030
455   4 -1.1825  7.813547  2.112723  8.344741
456   4 -1.1825  0.585748  2.424906  1.426917
457   4 -1.1825  5.410981  5.543960 14.428028
458   1  0.7900 32.026274  4.871915  9.062652
459   1  0.7900 27.272979 12.998739 12.788338
460   3  2.1000 30.615972 16.815163  8.108158
461   3  2.1000 12.941669  4.958243  2.705918
462   4 -1.1825 36.373843  8.719984 14.713795
463   2  0.5250 28.168486  6.391390 12.702155
464   4 -1.1825 32.351727  8.933158 13.221188
465   2  0.5250 37.802597  4.078570 15.548690
466   4 -1.1825 29.570069 10.286128 12.782279
467   1  0.7900 30.261167  5.752130 14.765118
468   1  0.7900 33.475150  2.455273 14.700195
469   4 -1.1825 34.345785  4.471316 10.465575
470   1  0.7900 34.475222  4.744870 17.224077
471   1  0.7900 32.280002 12.725956 11.411871
472   4 -1.1825 35.333605  3.763368 13.102385
473   2  0.5250 29.381668  4.895589 17.650487
474   3  2.1000  1.960620 12.459890  1.364598
475   4 -1.1825 11.141464  1.460454 13.495337
476   4 -1.1825 35.200255 17.772504  6.872399
477   2  0.5250 35.011706 10.770608 15.312802
478   4 -1.1825 18.561310 18.359383 14.215581
479   4 -1.1825 34.512916  7.320722 13.767256
480   2  0.5250 12.018710  3.196979 10.601247
481   1  0.7900  4.614055 16.982654  5.790277
482   1  0.7900  6.598287 12.790898  7.659576
483   4 -1.1825 36.462702 16.673237 14.570151
484   4 -1.1825 23.537625  8.806512 18.200648
485   3  2.1000  5.715264  2.443013 15.121630
486   4 -1.1825 32.928258 17.886786  9.018438
487   1  0.7900  7.960172 16.807223 13.935140
488   2  0.5250 16.457928 12.270449 18.375034
489   2  0.5250  6.721198 13.415674 10.232309
490   3  2.1000 34.946071 12.886021  6.513506
491   2  0.5250 21.849001 16.069774  8.309971
492   2  0.5250 11.276165 14.817730 14.536009
493   1  0.7900  5.892236 15.743738 15.183184
494   1  0.7900 38.939454  4.009069 18.484377
495   1  0.7900 20.125858  1.136485  7.932452
496   2  0.5250 21.563143  9.337249 15.871329
497   4 -1.1825 37.726720 13.374913 12.707018
498   4 -1.1825 12.895012 18.983687 18.275860
499   2  0.5250 32.077412 17.883714  3.615688
500   2  0.5250 20.818002 15.264483 13.421725
501   3  2.1000  4.338452 17.349469 13.076986
502   1  0.7900 10.983917 12.934460 17.399826
503   4 -1.1825 15.510191  8.425182 16.486570
504   4 -1.1825 19.303630 16.094268 15.233946
505   4 -1.1825 12.943942 11.717217 10.154387
506   2  0.5250  7.625541 12.020135 13.129270
507   2  0.5250  8.682085 12.100242 18.159115
508   4 -1.1825 16.038591 16.111482 14.756906
509   4 -1.1825 29.637859 15.974085  5.164584
510   1  0.7900 18.618048 14.514129  0.775028
511   2  0.5250 16.845761 15.238215 12.656974
512   1  0.7900 36.714250  5.951722 18.511197
513   1  0.7900 10.358540 12.218749 15.304942
514   4 -1.1825 16.531310 15.505503 17.530834
515   3  2.1000  4.088684 13.161088  9.031677
516   1  0.7900 20.309415  5.653608 11.489892
517   4 -1.1825 25.615649 18.771167 14.455264
518   3  2.1000 13.269920  7.630024 17.402844
519   4 -1.1825 12.698926 14.460182 17.535747
520   1  0.7900  8.883547 10.875321 12.049633
521   1  0.7900 13.021339 11.892514 15.746424
522   2  0.5250 13.771437  6.001934 14.787185
523   1  0.7900  9.525018 13.880903 13.258616
524   2  0.5250 13.896874 10.449225 12.574434
525   4 -1.1825 14.832755 12.896749 13.532444
526   2  0.5250  9.348117 13.684000  8.008599
527   4 -1.1825 18.430906  3.806447 14.644264
528   1  0.7900 20.586917  2.609386 12.297212
529   4 -1.1825 14.559678 13.979697 16.415572
530   1  0.7900 19.989447 18.413388 16.671940
531   2  0.5250 23.187876  4.895854  3.917536
532   4 -1.1825 13.473954 17.211149  5.830710
533   2  0.5250 34.773079 15.031184  7.333971
534   3  2.1000 17.711882  9.078395  9.973512
535   1  0.7900 18.167329 11.245144 14.078567
536   3  2.1000 10.029111  7.544972 14.053486
537   2  0.5250 29.930780  9.096600  4.609722
538   3  2.1000  7.636000 15.939211 17.152730
539   2  0.5250 34.276480 15.133250 16.493825
540   2  0.5250 21.733294  3.834703 14.243095
541   4 -1.1825 16.529973 13.254195 15.258162
542   1  0.7900 19.021389 14.769064 11.214706
543   4 -1.1825 24.638749  7.362345 11.716505
544   4 -1.1825 18.740449 14.100033 13.660747
545   4 -1.1825 23.405502  1.491141  1.798253
546   2  0.5250 38.309344 12.975112 15.889180
547   3  2.1000 28.109543 16.198882  7.743539
548   1  0.7900 24.971460 11.872868 16.499324
549   4 -1.1825 18.899339  7.116339  8.013233
550   2  0.5250 21.762764 15.363892  4.245709
551   2  0.5250 20.676666 11.633215 15.054903
552   4 -1.1825 25.159415  7.371522  4.918466
553   4 -1.1825 21.499445  1.002575  3.615484
554   1  0.7900 18.814956  2.468990  5.951781
555   2  0.5250  6.726716 16.389368  3.167067
556   1  0.7900 18.666739  4.840249 16.575934
557   4 -1.1825 24.763558  2.100685 18.692071
558   2  0.5250 25.083631  5.722769 14.545858
559   1  0.7900 20.356476  8.477356  9.714908
560   4 -1.1825 22.878729 10.876371  8.499971
561   2  0.5250 20.657157  8.867307 12.222075
562   2  0.5250  9.586475  5.055532 13.353580
563   4 -1.1825 29.526451 17.630376 12.403719
564   4 -1.1825 22.461517  6.674220 10.627014
565   4 -1.1825 17.964734 10.453898 16.168727
566   4 -1.1825 14.552314 17.356065 16.675044
567   2  0.5250 12.033526 15.791120 11.423827
568   3  2.1000 20.173151 11.735206 12.348964
569   1  0.7900 22.535023  6.655594 13.405444
570   4 -1.1825 15.148861 10.727537 14.760601
571   4 -1.1825 13.932669 15.913268 13.136079
572   4 -1.1825 18.656912 16.161686  2.589705
573   1  0.7900 22.652876 14.719286 10.892264
574   4 -1.1825 11.516235  0.788200  1.899182
575   1  0.7900 12.688789  4.588661 18.253583
576   4 -1.1825  2.409204 17.952254  5.316253
577   1  0.7900 24.854204 13.660205 11.950353
578   3  2.1000 17.010702 14.082936  9.938071
579   4 -1.1825 34.420569  1.183213  3.307258
580   1  0.7900 17.871658 11.766495 11.810938
581   4 -1.1825 25.593983  4.383129  5.319260
582   3  2.1000 22.746357 11.671135 10.837162
583   3  2.1000 36.279893  9.377256 12.113635
584   2  0.5250 19.547861  9.961923  7.117761
585   4 -1.1825 26.086207 13.076122  9.740328
586   2  0.5250 14.569373  3.629117  3.917837
587   2  0.5250 34.728542  9.417224 18.091885
588   4 -1.1825 30.271158 18.552398 18.373839
589   4 -1.1825 33.308525 12.550718 17.007341
590   1  0.7900 25.111230 15.064978  6.797804
591   1  0.7900 28.223287 13.565057  9.737160
592   2  0.5250 33.734665 13.489043 13.336656
593   4 -1.1825 32.273900 10.309890 16.571317
594   4 -1.1825  9.884558 17.797249  3.399054
595   1  0.7900 29.598881 12.904239 13.616092
596   4 -1.1825 34.540280 11.016016 13.135222
597   1  0.7900 31.100673 13.619581 15.298738
598   4 -1.1825 24.499490 16.347430 12.893999
599   4 -1.1825 13.965574 10.722776 17.440030
600   2  0.5250 24.958594  9.158092  6.434638
601   4 -1.1825 30.879299 10.460546 10.080168
602   2  0.5250 20.169863  5.693949 14.205168
603   4 -1.1825 29.774451 14.639374  7.016239
604   4 -1.1825  5.822311 11.353330 17.260633
605   4 -1.1825 29.883063 11.120844 15.945904
606   4 -1.1825  2.249508  3.288847  3.402549
607   4 -1.1825  5.494964 13.046753 13.692739
608   3  2.1000 21.035263 17.524784  3.452960
609   4 -1.1825 29.853080 13.747837 11.148247
610   4 -1.1825 29.421793 16.672983 16.707954
611   4 -1.1825 29.213910 15.792745 14.050253
612   4 -1.1825 23.714845  9.323120 11.114240
613   1  0.7900 28.525809 11.388928 11.071005
614   3  2.1000 18.741485 17.258248  5.162672
615   4 -1.1825 26.289389 10.713959 13.054015
616   4 -1.1825 31.440528 14.929232 12.410560
617   3  2.1000 25.325671 13.775250 14.883298
618   1  0.7900 19.439095 11.041977 18.280088
619   2  0.5250 29.904306 11.976643 18.100658
620   4 -1.1825 21.308041  4.252504 18.502364
621   1  0.7900 20.919354 16.628332 10.590459
622   2  0.5250 34.213193 15.635256 12.873548
623   1  0.7900 33.463654 13.027718  8.786618
624   2  0.5250 36.059411 13.197052 11.565671
625   4 -1.1825 23.289340 17.341509  6.768331
626   1  0.7900  3.235763 16.728174  8.310480
627   1  0.7900 32.642881 15.425662  6.683034
628   2  0.5250 34.114380 18.359675 17.615918
629   1  0.7900 35.442992 11.597803  9.940423
630   3  2.1000 31.943002 14.611292 18.066321
631   4 -1.1825 19.188386 16.192395  8.517296
632   4 -1.1825 23.772791 16.574435 14.988569
633   2  0.5250  7.145072 17.226586  0.556218
634   4 -1.1825 25.677149  1.519667 16.781413
635   4 -1.1825  4.145615  0.768761  7.875971
636   4 -1.1825 17.831754  5.992732 18.507620
637   4 -1.1825  7.974979  9.881754 18.702710
638   4 -1.1825  6.712623 14.111265 18.698227
639   3  2.1000 37.579944 13.886330 18.731016
640   4 -1.1825 30.920917  0.426023  0.080743
641   4 -1.1825  4.793712 10.613338  0.234692
642   4 -1.1825 12.639627  9.608238  0.065372
643   4 -1.1825 37.791205 16.136085 24.581095
644   3  2.1000 38.588223  5.866235 23.813507
645   4 -1.1825  8.721009  7.581656 26.097780
646   4 -1.1825 18.251151 17.649708 21.959723