Generated by pymatgen.io.lammps.data.LammpsData

3888  atoms

   4  atom types

0.000000 34.467276  xlo xhi
0.000000 35.320344  ylo yhi
0.000000 56.197284  zlo zhi
2.136102 13.449792 4.775052  xy xz yz

Masses

1  132.905452
2    6.941000
3   72.640000
4   15.999400

Atoms

1     1  0.7900  3.540204  2.353746  9.251628
2     1  0.7900  5.781836  3.149588 18.617842
3     1  0.7900  8.023468  3.945430 27.984056
4     1  0.7900 10.265100  4.741272 37.350270
5     1  0.7900 12.506732  5.537114 46.716484
6     1  0.7900 14.748364  6.332956 56.082698
7     1  0.7900  3.896221  8.240470  9.251628
8     1  0.7900  6.137853  9.036312 18.617842
9     1  0.7900  8.379485  9.832154 27.984056
10    1  0.7900 10.621117 10.627996 37.350270
11    1  0.7900 12.862749 11.423838 46.716484
12    1  0.7900 15.104381 12.219680 56.082698
13    1  0.7900  4.252238 14.127194  9.251628
14    1  0.7900  6.493870 14.923036 18.617842
15    1  0.7900  8.735502 15.718878 27.984056
16    1  0.7900 10.977134 16.514720 37.350270
17    1  0.7900 13.218766 17.310562 46.716484
18    1  0.7900 15.460398 18.106404 56.082698
19    1  0.7900  4.608255 20.013918  9.251628
20    1  0.7900  6.849887 20.809760 18.617842
21    1  0.7900  9.091519 21.605602 27.984056
22    1  0.7900 11.333151 22.401444 37.350270
23    1  0.7900 13.574783 23.197286 46.716484
24    1  0.7900 15.816415 23.993128 56.082698
25    1  0.7900  4.964272 25.900642  9.251628
26    1  0.7900  7.205904 26.696484 18.617842
27    1  0.7900  9.447536 27.492326 27.984056
28    1  0.7900 11.689168 28.288168 37.350270
29    1  0.7900 13.930800 29.084010 46.716484
30    1  0.7900 16.172432 29.879852 56.082698
31    1  0.7900  5.320289 31.787366  9.251628
32    1  0.7900  7.561921 32.583208 18.617842
33    1  0.7900  9.803553 33.379050 27.984056
34    1  0.7900 12.045185 34.174892 37.350270
35    1  0.7900 14.286817 34.970734 46.716484
36    1  0.7900 16.528449 35.766576 56.082698
37    1  0.7900  9.284750  2.353746  9.251628
38    1  0.7900 11.526382  3.149588 18.617842
39    1  0.7900 13.768014  3.945430 27.984056
40    1  0.7900 16.009646  4.741272 37.350270
41    1  0.7900 18.251278  5.537114 46.716484
42    1  0.7900 20.492910  6.332956 56.082698
43    1  0.7900  9.640767  8.240470  9.251628
44    1  0.7900 11.882399  9.036312 18.617842
45    1  0.7900 14.124031  9.832154 27.984056
46    1  0.7900 16.365663 10.627996 37.350270
47    1  0.7900 18.607295 11.423838 46.716484
48    1  0.7900 20.848927 12.219680 56.082698
49    1  0.7900  9.996784 14.127194  9.251628
50    1  0.7900 12.238416 14.923036 18.617842
51    1  0.7900 14.480048 15.718878 27.984056
52    1  0.7900 16.721680 16.514720 37.350270
53    1  0.7900 18.963312 17.310562 46.716484
54    1  0.7900 21.204944 18.106404 56.082698
55    1  0.7900 10.352801 20.013918  9.251628
56    1  0.7900 12.594433 20.809760 18.617842
57    1  0.7900 14.836065 21.605602 27.984056
58    1  0.7900 17.077697 22.401444 37.350270
59    1  0.7900 19.319329 23.197286 46.716484
60    1  0.7900 21.560961 23.993128 56.082698
61    1  0.7900 10.708818 25.900642  9.251628
62    1  0.7900 12.950450 26.696484 18.617842
63    1  0.7900 15.192082 27.492326 27.984056
64    1  0.7900 17.433714 28.288168 37.350270
65    1  0.7900 19.675346 29.084010 46.716484
66    1  0.7900 21.916978 29.879852 56.082698
67    1  0.7900 11.064835 31.787366  9.251628
68    1  0.7900 13.306467 32.583208 18.617842
69    1  0.7900 15.548099 33.379050 27.984056
70    1  0.7900 17.789731 34.174892 37.350270
71    1  0.7900 20.031363 34.970734 46.716484
72    1  0.7900 22.272995 35.766576 56.082698
73    1  0.7900 15.029296  2.353746  9.251628
74    1  0.7900 17.270928  3.149588 18.617842
75    1  0.7900 19.512560  3.945430 27.984056
76    1  0.7900 21.754192  4.741272 37.350270
77    1  0.7900 23.995824  5.537114 46.716484
78    1  0.7900 26.237456  6.332956 56.082698
79    1  0.7900 15.385313  8.240470  9.251628
80    1  0.7900 17.626945  9.036312 18.617842
81    1  0.7900 19.868577  9.832154 27.984056
82    1  0.7900 22.110209 10.627996 37.350270
83    1  0.7900 24.351841 11.423838 46.716484
84    1  0.7900 26.593473 12.219680 56.082698
85    1  0.7900 15.741330 14.127194  9.251628
86    1  0.7900 17.982962 14.923036 18.617842
87    1  0.7900 20.224594 15.718878 27.984056
88    1  0.7900 22.466226 16.514720 37.350270
89    1  0.7900 24.707858 17.310562 46.716484
90    1  0.7900 26.949490 18.106404 56.082698
91    1  0.7900 16.097347 20.013918  9.251628
92    1  0.7900 18.338979 20.809760 18.617842
93    1  0.7900 20.580611 21.605602 27.984056
94    1  0.7900 22.822243 22.401444 37.350270
95    1  0.7900 25.063875 23.197286 46.716484
96    1  0.7900 27.305507 23.993128 56.082698
97    1  0.7900 16.453364 25.900642  9.251628
98    1  0.7900 18.694996 26.696484 18.617842
99    1  0.7900 20.936628 27.492326 27.984056
100   1  0.7900 23.178260 28.288168 37.350270
101   1  0.7900 25.419892 29.084010 46.716484
102   1  0.7900 27.661524 29.879852 56.082698
103   1  0.7900 16.809381 31.787366  9.251628
104   1  0.7900 19.051013 32.583208 18.617842
105   1  0.7900 21.292645 33.379050 27.984056
106   1  0.7900 23.534277 34.174892 37.350270
107   1  0.7900 25.775909 34.970734 46.716484
108   1  0.7900 28.017541 35.766576 56.082698
109   1  0.7900 20.773842  2.353746  9.251628
110   1  0.7900 23.015474  3.149588 18.617842
111   1  0.7900 25.257106  3.945430 27.984056
112   1  0.7900 27.498738  4.741272 37.350270
113   1  0.7900 29.740370  5.537114 46.716484
114   1  0.7900 31.982002  6.332956 56.082698
115   1  0.7900 21.129859  8.240470  9.251628
116   1  0.7900 23.371491  9.036312 18.617842
117   1  0.7900 25.613123  9.832154 27.984056
118   1  0.7900 27.854755 10.627996 37.350270
119   1  0.7900 30.096387 11.423838 46.716484
120   1  0.7900 32.338019 12.219680 56.082698
121   1  0.7900 21.485876 14.127194  9.251628
122   1  0.7900 23.727508 14.923036 18.617842
123   1  0.7900 25.969140 15.718878 27.984056
124   1  0.7900 28.210772 16.514720 37.350270
125   1  0.7900 30.452404 17.310562 46.716484
126   1  0.7900 32.694036 18.106404 56.082698
127   1  0.7900 21.841893 20.013918  9.251628
128   1  0.7900 24.083525 20.809760 18.617842
129   1  0.7900 26.325157 21.605602 27.984056
130   1  0.7900 28.566789 22.401444 37.350270
131   1  0.7900 30.808421 23.197286 46.716484
132   1  0.7900 33.050053 23.993128 56.082698
133   1  0.7900 22.197910 25.900642  9.251628
134   1  0.7900 24.439542 26.696484 18.617842
135   1  0.7900 26.681174 27.492326 27.984056
136   1  0.7900 28.922806 28.288168 37.350270
137   1  0.7900 31.164438 29.084010 46.716484
138   1  0.7900 33.406070 29.879852 56.082698
139   1  0.7900 22.553927 31.787366  9.251628
140   1  0.7900 24.795559 32.583208 18.617842
141   1  0.7900 27.037191 33.379050 27.984056
142   1  0.7900 29.278823 34.174892 37.350270
143   1  0.7900 31.520455 34.970734 46.716484
144   1  0.7900 33.762087 35.766576 56.082698
145   1  0.7900 26.518388  2.353746  9.251628
146   1  0.7900 28.760020  3.149588 18.617842
147   1  0.7900 31.001652  3.945430 27.984056
148   1  0.7900 33.243284  4.741272 37.350270
149   1  0.7900 35.484916  5.537114 46.716484
150   1  0.7900 37.726548  6.332956 56.082698
151   1  0.7900 26.874405  8.240470  9.251628
152   1  0.7900 29.116037  9.036312 18.617842
153   1  0.7900 31.357669  9.832154 27.984056
154   1  0.7900 33.599301 10.627996 37.350270
155   1  0.7900 35.840933 11.423838 46.716484
156   1  0.7900 38.082565 12.219680 56.082698
157   1  0.7900 27.230422 14.127194  9.251628
158   1  0.7900 29.472054 14.923036 18.617842
159   1  0.7900 31.713686 15.718878 27.984056
160   1  0.7900 33.955318 16.514720 37.350270
161   1  0.7900 36.196950 17.310562 46.716484
162   1  0.7900 38.438582 18.106404 56.082698
163   1  0.7900 27.586439 20.013918  9.251628
164   1  0.7900 29.828071 20.809760 18.617842
165   1  0.7900 32.069703 21.605602 27.984056
166   1  0.7900 34.311335 22.401444 37.350270
167   1  0.7900 36.552967 23.197286 46.716484
168   1  0.7900 38.794599 23.993128 56.082698
169   1  0.7900 27.942456 25.900642  9.251628
170   1  0.7900 30.184088 26.696484 18.617842
171   1  0.7900 32.425720 27.492326 27.984056
172   1  0.7900 34.667352 28.288168 37.350270
173   1  0.7900 36.908984 29.084010 46.716484
174   1  0.7900 39.150616 29.879852 56.082698
175   1  0.7900 28.298473 31.787366  9.251628
176   1  0.7900 30.540105 32.583208 18.617842
177   1  0.7900 32.781737 33.379050 27.984056
178   1  0.7900 35.023369 34.174892 37.350270
179   1  0.7900 37.265001 34.970734 46.716484
180   1  0.7900 39.506633 35.766576 56.082698
181   1  0.7900 32.262934  2.353746  9.251628
182   1  0.7900 34.504566  3.149588 18.617842
183   1  0.7900 36.746198  3.945430 27.984056
184   1  0.7900 38.987830  4.741272 37.350270
185   1  0.7900 41.229462  5.537114 46.716484
186   1  0.7900 43.471094  6.332956 56.082698
187   1  0.7900 32.618951  8.240470  9.251628
188   1  0.7900 34.860583  9.036312 18.617842
189   1  0.7900 37.102215  9.832154 27.984056
190   1  0.7900 39.343847 10.627996 37.350270
191   1  0.7900 41.585479 11.423838 46.716484
192   1  0.7900 43.827111 12.219680 56.082698
193   1  0.7900 32.974968 14.127194  9.251628
194   1  0.7900 35.216600 14.923036 18.617842
195   1  0.7900 37.458232 15.718878 27.984056
196   1  0.7900 39.699864 16.514720 37.350270
197   1  0.7900 41.941496 17.310562 46.716484
198   1  0.7900 44.183128 18.106404 56.082698
199   1  0.7900 33.330985 20.013918  9.251628
200   1  0.7900 35.572617 20.809760 18.617842
201   1  0.7900 37.814249 21.605602 27.984056
202   1  0.7900 40.055881 22.401444 37.350270
203   1  0.7900 42.297513 23.197286 46.716484
204   1  0.7900 44.539145 23.993128 56.082698
205   1  0.7900 33.687002 25.900642  9.251628
206   1  0.7900 35.928634 26.696484 18.617842
207   1  0.7900 38.170266 27.492326 27.984056
208   1  0.7900 40.411898 28.288168 37.350270
209   1  0.7900 42.653530 29.084010 46.716484
210   1  0.7900 44.895162 29.879852 56.082698
211   1  0.7900 34.043019 31.787366  9.251628
212   1  0.7900 36.284651 32.583208 18.617842
213   1  0.7900 38.526283 33.379050 27.984056
214   1  0.7900 40.767915 34.174892 37.350270
215   1  0.7900 43.009547 34.970734 46.716484
216   1  0.7900 45.251179 35.766576 56.082698
217   1  0.7900  4.801991  4.328820  0.114586
218   1  0.7900  7.043623  5.124662  9.480800
219   1  0.7900  9.285255  5.920504 18.847014
220   1  0.7900 11.526887  6.716346 28.213228
221   1  0.7900 13.768519  7.512188 37.579442
222   1  0.7900 16.010151  8.308030 46.945656
223   1  0.7900  5.158008 10.215544  0.114586
224   1  0.7900  7.399640 11.011386  9.480800
225   1  0.7900  9.641272 11.807228 18.847014
226   1  0.7900 11.882904 12.603070 28.213228
227   1  0.7900 14.124536 13.398912 37.579442
228   1  0.7900 16.366168 14.194754 46.945656
229   1  0.7900  5.514025 16.102268  0.114586
230   1  0.7900  7.755657 16.898110  9.480800
231   1  0.7900  9.997289 17.693952 18.847014
232   1  0.7900 12.238921 18.489794 28.213228
233   1  0.7900 14.480553 19.285636 37.579442
234   1  0.7900 16.722185 20.081478 46.945656
235   1  0.7900  5.870042 21.988992  0.114586
236   1  0.7900  8.111674 22.784834  9.480800
237   1  0.7900 10.353306 23.580676 18.847014
238   1  0.7900 12.594938 24.376518 28.213228
239   1  0.7900 14.836570 25.172360 37.579442
240   1  0.7900 17.078202 25.968202 46.945656
241   1  0.7900  6.226059 27.875716  0.114586
242   1  0.7900  8.467691 28.671558  9.480800
243   1  0.7900 10.709323 29.467400 18.847014
244   1  0.7900 12.950955 30.263242 28.213228
245   1  0.7900 15.192587 31.059084 37.579442
246   1  0.7900 17.434219 31.854926 46.945656
247   1  0.7900  6.582076 33.762440  0.114586
248   1  0.7900  8.823708 34.558282  9.480800
249   1  0.7900 11.065340 35.354124 18.847014
250   1  0.7900 13.306972 36.149966 28.213228
251   1  0.7900 15.548604 36.945808 37.579442
252   1  0.7900 17.790236 37.741650 46.945656
253   1  0.7900 10.546537  4.328820  0.114586
254   1  0.7900 12.788169  5.124662  9.480800
255   1  0.7900 15.029801  5.920504 18.847014
256   1  0.7900 17.271433  6.716346 28.213228
257   1  0.7900 19.513065  7.512188 37.579442
258   1  0.7900 21.754697  8.308030 46.945656
259   1  0.7900 10.902554 10.215544  0.114586
260   1  0.7900 13.144186 11.011386  9.480800
261   1  0.7900 15.385818 11.807228 18.847014
262   1  0.7900 17.627450 12.603070 28.213228
263   1  0.7900 19.869082 13.398912 37.579442
264   1  0.7900 22.110714 14.194754 46.945656
265   1  0.7900 11.258571 16.102268  0.114586
266   1  0.7900 13.500203 16.898110  9.480800
267   1  0.7900 15.741835 17.693952 18.847014
268   1  0.7900 17.983467 18.489794 28.213228
269   1  0.7900 20.225099 19.285636 37.579442
270   1  0.7900 22.466731 20.081478 46.945656
271   1  0.7900 11.614588 21.988992  0.114586
272   1  0.7900 13.856220 22.784834  9.480800
273   1  0.7900 16.097852 23.580676 18.847014
274   1  0.7900 18.339484 24.376518 28.213228
275   1  0.7900 20.581116 25.172360 37.579442
276   1  0.7900 22.822748 25.968202 46.945656
277   1  0.7900 11.970605 27.875716  0.114586
278   1  0.7900 14.212237 28.671558  9.480800
279   1  0.7900 16.453869 29.467400 18.847014
280   1  0.7900 18.695501 30.263242 28.213228
281   1  0.7900 20.937133 31.059084 37.579442
282   1  0.7900 23.178765 31.854926 46.945656
283   1  0.7900 12.326622 33.762440  0.114586
284   1  0.7900 14.568254 34.558282  9.480800
285   1  0.7900 16.809886 35.354124 18.847014
286   1  0.7900 19.051518 36.149966 28.213228
287   1  0.7900 21.293150 36.945808 37.579442
288   1  0.7900 23.534782 37.741650 46.945656
289   1  0.7900 16.291083  4.328820  0.114586
290   1  0.7900 18.532715  5.124662  9.480800
291   1  0.7900 20.774347  5.920504 18.847014
292   1  0.7900 23.015979  6.716346 28.213228
293   1  0.7900 25.257611  7.512188 37.579442
294   1  0.7900 27.499243  8.308030 46.945656
295   1  0.7900 16.647100 10.215544  0.114586
296   1  0.7900 18.888732 11.011386  9.480800
297   1  0.7900 21.130364 11.807228 18.847014
298   1  0.7900 23.371996 12.603070 28.213228
299   1  0.7900 25.613628 13.398912 37.579442
300   1  0.7900 27.855260 14.194754 46.945656
301   1  0.7900 17.003117 16.102268  0.114586
302   1  0.7900 19.244749 16.898110  9.480800
303   1  0.7900 21.486381 17.693952 18.847014
304   1  0.7900 23.728013 18.489794 28.213228
305   1  0.7900 25.969645 19.285636 37.579442
306   1  0.7900 28.211277 20.081478 46.945656
307   1  0.7900 17.359134 21.988992  0.114586
308   1  0.7900 19.600766 22.784834  9.480800
309   1  0.7900 21.842398 23.580676 18.847014
310   1  0.7900 24.084030 24.376518 28.213228
311   1  0.7900 26.325662 25.172360 37.579442
312   1  0.7900 28.567294 25.968202 46.945656
313   1  0.7900 17.715151 27.875716  0.114586
314   1  0.7900 19.956783 28.671558  9.480800
315   1  0.7900 22.198415 29.467400 18.847014
316   1  0.7900 24.440047 30.263242 28.213228
317   1  0.7900 26.681679 31.059084 37.579442
318   1  0.7900 28.923311 31.854926 46.945656
319   1  0.7900 18.071168 33.762440  0.114586
320   1  0.7900 20.312800 34.558282  9.480800
321   1  0.7900 22.554432 35.354124 18.847014
322   1  0.7900 24.796064 36.149966 28.213228
323   1  0.7900 27.037696 36.945808 37.579442
324   1  0.7900 29.279328 37.741650 46.945656
325   1  0.7900 22.035629  4.328820  0.114586
326   1  0.7900 24.277261  5.124662  9.480800
327   1  0.7900 26.518893  5.920504 18.847014
328   1  0.7900 28.760525  6.716346 28.213228
329   1  0.7900 31.002157  7.512188 37.579442
330   1  0.7900 33.243789  8.308030 46.945656
331   1  0.7900 22.391646 10.215544  0.114586
332   1  0.7900 24.633278 11.011386  9.480800
333   1  0.7900 26.874910 11.807228 18.847014
334   1  0.7900 29.116542 12.603070 28.213228
335   1  0.7900 31.358174 13.398912 37.579442
336   1  0.7900 33.599806 14.194754 46.945656
337   1  0.7900 22.747663 16.102268  0.114586
338   1  0.7900 24.989295 16.898110  9.480800
339   1  0.7900 27.230927 17.693952 18.847014
340   1  0.7900 29.472559 18.489794 28.213228
341   1  0.7900 31.714191 19.285636 37.579442
342   1  0.7900 33.955823 20.081478 46.945656
343   1  0.7900 23.103680 21.988992  0.114586
344   1  0.7900 25.345312 22.784834  9.480800
345   1  0.7900 27.586944 23.580676 18.847014
346   1  0.7900 29.828576 24.376518 28.213228
347   1  0.7900 32.070208 25.172360 37.579442
348   1  0.7900 34.311840 25.968202 46.945656
349   1  0.7900 23.459697 27.875716  0.114586
350   1  0.7900 25.701329 28.671558  9.480800
351   1  0.7900 27.942961 29.467400 18.847014
352   1  0.7900 30.184593 30.263242 28.213228
353   1  0.7900 32.426225 31.059084 37.579442
354   1  0.7900 34.667857 31.854926 46.945656
355   1  0.7900 23.815714 33.762440  0.114586
356   1  0.7900 26.057346 34.558282  9.480800
357   1  0.7900 28.298978 35.354124 18.847014
358   1  0.7900 30.540610 36.149966 28.213228
359   1  0.7900 32.782242 36.945808 37.579442
360   1  0.7900 35.023874 37.741650 46.945656
361   1  0.7900 27.780175  4.328820  0.114586
362   1  0.7900 30.021807  5.124662  9.480800
363   1  0.7900 32.263439  5.920504 18.847014
364   1  0.7900 34.505071  6.716346 28.213228
365   1  0.7900 36.746703  7.512188 37.579442
366   1  0.7900 38.988335  8.308030 46.945656
367   1  0.7900 28.136192 10.215544  0.114586
368   1  0.7900 30.377824 11.011386  9.480800
369   1  0.7900 32.619456 11.807228 18.847014
370   1  0.7900 34.861088 12.603070 28.213228
371   1  0.7900 37.102720 13.398912 37.579442
372   1  0.7900 39.344352 14.194754 46.945656
373   1  0.7900 28.492209 16.102268  0.114586
374   1  0.7900 30.733841 16.898110  9.480800
375   1  0.7900 32.975473 17.693952 18.847014
376   1  0.7900 35.217105 18.489794 28.213228
377   1  0.7900 37.458737 19.285636 37.579442
378   1  0.7900 39.700369 20.081478 46.945656
379   1  0.7900 28.848226 21.988992  0.114586
380   1  0.7900 31.089858 22.784834  9.480800
381   1  0.7900 33.331490 23.580676 18.847014
382   1  0.7900 35.573122 24.376518 28.213228
383   1  0.7900 37.814754 25.172360 37.579442
384   1  0.7900 40.056386 25.968202 46.945656
385   1  0.7900 29.204243 27.875716  0.114586
386   1  0.7900 31.445875 28.671558  9.480800
387   1  0.7900 33.687507 29.467400 18.847014
388   1  0.7900 35.929139 30.263242 28.213228
389   1  0.7900 38.170771 31.059084 37.579442
390   1  0.7900 40.412403 31.854926 46.945656
391   1  0.7900 29.560260 33.762440  0.114586
392   1  0.7900 31.801892 34.558282  9.480800
393   1  0.7900 34.043524 35.354124 18.847014
394   1  0.7900 36.285156 36.149966 28.213228
395   1  0.7900 38.526788 36.945808 37.579442
396   1  0.7900 40.768420 37.741650 46.945656
397   1  0.7900 33.524721  4.328820  0.114586
398   1  0.7900 35.766353  5.124662  9.480800
399   1  0.7900 38.007985  5.920504 18.847014
400   1  0.7900 40.249617  6.716346 28.213228
401   1  0.7900 42.491249  7.512188 37.579442
402   1  0.7900 44.732881  8.308030 46.945656
403   1  0.7900 33.880738 10.215544  0.114586
404   1  0.7900 36.122370 11.011386  9.480800
405   1  0.7900 38.364002 11.807228 18.847014
406   1  0.7900 40.605634 12.603070 28.213228
407   1  0.7900 42.847266 13.398912 37.579442
408   1  0.7900 45.088898 14.194754 46.945656
409   1  0.7900 34.236755 16.102268  0.114586
410   1  0.7900 36.478387 16.898110  9.480800
411   1  0.7900 38.720019 17.693952 18.847014
412   1  0.7900 40.961651 18.489794 28.213228
413   1  0.7900 43.203283 19.285636 37.579442
414   1  0.7900 45.444915 20.081478 46.945656
415   1  0.7900 34.592772 21.988992  0.114586
416   1  0.7900 36.834404 22.784834  9.480800
417   1  0.7900 39.076036 23.580676 18.847014
418   1  0.7900 41.317668 24.376518 28.213228
419   1  0.7900 43.559300 25.172360 37.579442
420   1  0.7900 45.800932 25.968202 46.945656
421   1  0.7900 34.948789 27.875716  0.114586
422   1  0.7900 37.190421 28.671558  9.480800
423   1  0.7900 39.432053 29.467400 18.847014
424   1  0.7900 41.673685 30.263242 28.213228
425   1  0.7900 43.915317 31.059084 37.579442
426   1  0.7900 46.156949 31.854926 46.945656
427   1  0.7900 35.304806 33.762440  0.114586
428   1  0.7900 37.546438 34.558282  9.480800
429   1  0.7900 39.788070 35.354124 18.847014
430   1  0.7900 42.029702 36.149966 28.213228
431   1  0.7900 44.271334 36.945808 37.579442
432   1  0.7900 46.512966 37.741650 46.945656
433   1  0.7900  4.679158  5.597366  6.630118
434   1  0.7900  6.920790  6.393208 15.996332
435   1  0.7900  9.162422  7.189050 25.362546
436   1  0.7900 11.404054  7.984892 34.728760
437   1  0.7900 13.645686  8.780734 44.094974
438   1  0.7900 15.887318  9.576576 53.461188
439   1  0.7900  5.035175 11.484090  6.630118
440   1  0.7900  7.276807 12.279932 15.996332
441   1  0.7900  9.518439 13.075774 25.362546
442   1  0.7900 11.760071 13.871616 34.728760
443   1  0.7900 14.001703 14.667458 44.094974
444   1  0.7900 16.243335 15.463300 53.461188
445   1  0.7900  5.391192 17.370814  6.630118
446   1  0.7900  7.632824 18.166656 15.996332
447   1  0.7900  9.874456 18.962498 25.362546
448   1  0.7900 12.116088 19.758340 34.728760
449   1  0.7900 14.357720 20.554182 44.094974
450   1  0.7900 16.599352 21.350024 53.461188
451   1  0.7900  5.747209 23.257538  6.630118
452   1  0.7900  7.988841 24.053380 15.996332
453   1  0.7900 10.230473 24.849222 25.362546
454   1  0.7900 12.472105 25.645064 34.728760
455   1  0.7900 14.713737 26.440906 44.094974
456   1  0.7900 16.955369 27.236748 53.461188
457   1  0.7900  6.103226 29.144262  6.630118
458   1  0.7900  8.344858 29.940104 15.996332
459   1  0.7900 10.586490 30.735946 25.362546
460   1  0.7900 12.828122 31.531788 34.728760
461   1  0.7900 15.069754 32.327630 44.094974
462   1  0.7900 17.311386 33.123472 53.461188
463   1  0.7900  6.459243 35.030986  6.630118
464   1  0.7900  8.700875 35.826828 15.996332
465   1  0.7900 10.942507 36.622670 25.362546
466   1  0.7900 13.184139 37.418512 34.728760
467   1  0.7900 15.425771 38.214354 44.094974
468   1  0.7900 17.667403 39.010196 53.461188
469   1  0.7900 10.423704  5.597366  6.630118
470   1  0.7900 12.665336  6.393208 15.996332
471   1  0.7900 14.906968  7.189050 25.362546
472   1  0.7900 17.148600  7.984892 34.728760
473   1  0.7900 19.390232  8.780734 44.094974
474   1  0.7900 21.631864  9.576576 53.461188
475   1  0.7900 10.779721 11.484090  6.630118
476   1  0.7900 13.021353 12.279932 15.996332
477   1  0.7900 15.262985 13.075774 25.362546
478   1  0.7900 17.504617 13.871616 34.728760
479   1  0.7900 19.746249 14.667458 44.094974
480   1  0.7900 21.987881 15.463300 53.461188
481   1  0.7900 11.135738 17.370814  6.630118
482   1  0.7900 13.377370 18.166656 15.996332
483   1  0.7900 15.619002 18.962498 25.362546
484   1  0.7900 17.860634 19.758340 34.728760
485   1  0.7900 20.102266 20.554182 44.094974
486   1  0.7900 22.343898 21.350024 53.461188
487   1  0.7900 11.491755 23.257538  6.630118
488   1  0.7900 13.733387 24.053380 15.996332
489   1  0.7900 15.975019 24.849222 25.362546
490   1  0.7900 18.216651 25.645064 34.728760
491   1  0.7900 20.458283 26.440906 44.094974
492   1  0.7900 22.699915 27.236748 53.461188
493   1  0.7900 11.847772 29.144262  6.630118
494   1  0.7900 14.089404 29.940104 15.996332
495   1  0.7900 16.331036 30.735946 25.362546
496   1  0.7900 18.572668 31.531788 34.728760
497   1  0.7900 20.814300 32.327630 44.094974
498   1  0.7900 23.055932 33.123472 53.461188
499   1  0.7900 12.203789 35.030986  6.630118
500   1  0.7900 14.445421 35.826828 15.996332
501   1  0.7900 16.687053 36.622670 25.362546
502   1  0.7900 18.928685 37.418512 34.728760
503   1  0.7900 21.170317 38.214354 44.094974
504   1  0.7900 23.411949 39.010196 53.461188
505   1  0.7900 16.168250  5.597366  6.630118
506   1  0.7900 18.409882  6.393208 15.996332
507   1  0.7900 20.651514  7.189050 25.362546
508   1  0.7900 22.893146  7.984892 34.728760
509   1  0.7900 25.134778  8.780734 44.094974
510   1  0.7900 27.376410  9.576576 53.461188
511   1  0.7900 16.524267 11.484090  6.630118
512   1  0.7900 18.765899 12.279932 15.996332
513   1  0.7900 21.007531 13.075774 25.362546
514   1  0.7900 23.249163 13.871616 34.728760
515   1  0.7900 25.490795 14.667458 44.094974
516   1  0.7900 27.732427 15.463300 53.461188
517   1  0.7900 16.880284 17.370814  6.630118
518   1  0.7900 19.121916 18.166656 15.996332
519   1  0.7900 21.363548 18.962498 25.362546
520   1  0.7900 23.605180 19.758340 34.728760
521   1  0.7900 25.846812 20.554182 44.094974
522   1  0.7900 28.088444 21.350024 53.461188
523   1  0.7900 17.236301 23.257538  6.630118
524   1  0.7900 19.477933 24.053380 15.996332
525   1  0.7900 21.719565 24.849222 25.362546
526   1  0.7900 23.961197 25.645064 34.728760
527   1  0.7900 26.202829 26.440906 44.094974
528   1  0.7900 28.444461 27.236748 53.461188
529   1  0.7900 17.592318 29.144262  6.630118
530   1  0.7900 19.833950 29.940104 15.996332
531   1  0.7900 22.075582 30.735946 25.362546
532   1  0.7900 24.317214 31.531788 34.728760
533   1  0.7900 26.558846 32.327630 44.094974
534   1  0.7900 28.800478 33.123472 53.461188
535   1  0.7900 17.948335 35.030986  6.630118
536   1  0.7900 20.189967 35.826828 15.996332
537   1  0.7900 22.431599 36.622670 25.362546
538   1  0.7900 24.673231 37.418512 34.728760
539   1  0.7900 26.914863 38.214354 44.094974
540   1  0.7900 29.156495 39.010196 53.461188
541   1  0.7900 21.912796  5.597366  6.630118
542   1  0.7900 24.154428  6.393208 15.996332
543   1  0.7900 26.396060  7.189050 25.362546
544   1  0.7900 28.637692  7.984892 34.728760
545   1  0.7900 30.879324  8.780734 44.094974
546   1  0.7900 33.120956  9.576576 53.461188
547   1  0.7900 22.268813 11.484090  6.630118
548   1  0.7900 24.510445 12.279932 15.996332
549   1  0.7900 26.752077 13.075774 25.362546
550   1  0.7900 28.993709 13.871616 34.728760
551   1  0.7900 31.235341 14.667458 44.094974
552   1  0.7900 33.476973 15.463300 53.461188
553   1  0.7900 22.624830 17.370814  6.630118
554   1  0.7900 24.866462 18.166656 15.996332
555   1  0.7900 27.108094 18.962498 25.362546
556   1  0.7900 29.349726 19.758340 34.728760
557   1  0.7900 31.591358 20.554182 44.094974
558   1  0.7900 33.832990 21.350024 53.461188
559   1  0.7900 22.980847 23.257538  6.630118
560   1  0.7900 25.222479 24.053380 15.996332
561   1  0.7900 27.464111 24.849222 25.362546
562   1  0.7900 29.705743 25.645064 34.728760
563   1  0.7900 31.947375 26.440906 44.094974
564   1  0.7900 34.189007 27.236748 53.461188
565   1  0.7900 23.336864 29.144262  6.630118
566   1  0.7900 25.578496 29.940104 15.996332
567   1  0.7900 27.820128 30.735946 25.362546
568   1  0.7900 30.061760 31.531788 34.728760
569   1  0.7900 32.303392 32.327630 44.094974
570   1  0.7900 34.545024 33.123472 53.461188
571   1  0.7900 23.692881 35.030986  6.630118
572   1  0.7900 25.934513 35.826828 15.996332
573   1  0.7900 28.176145 36.622670 25.362546
574   1  0.7900 30.417777 37.418512 34.728760
575   1  0.7900 32.659409 38.214354 44.094974
576   1  0.7900 34.901041 39.010196 53.461188
577   1  0.7900 27.657342  5.597366  6.630118
578   1  0.7900 29.898974  6.393208 15.996332
579   1  0.7900 32.140606  7.189050 25.362546
580   1  0.7900 34.382238  7.984892 34.728760
581   1  0.7900 36.623870  8.780734 44.094974
582   1  0.7900 38.865502  9.576576 53.461188
583   1  0.7900 28.013359 11.484090  6.630118
584   1  0.7900 30.254991 12.279932 15.996332
585   1  0.7900 32.496623 13.075774 25.362546
586   1  0.7900 34.738255 13.871616 34.728760
587   1  0.7900 36.979887 14.667458 44.094974
588   1  0.7900 39.221519 15.463300 53.461188
589   1  0.7900 28.369376 17.370814  6.630118
590   1  0.7900 30.611008 18.166656 15.996332
591   1  0.7900 32.852640 18.962498 25.362546
592   1  0.7900 35.094272 19.758340 34.728760
593   1  0.7900 37.335904 20.554182 44.094974
594   1  0.7900 39.577536 21.350024 53.461188
595   1  0.7900 28.725393 23.257538  6.630118
596   1  0.7900 30.967025 24.053380 15.996332
597   1  0.7900 33.208657 24.849222 25.362546
598   1  0.7900 35.450289 25.645064 34.728760
599   1  0.7900 37.691921 26.440906 44.094974
600   1  0.7900 39.933553 27.236748 53.461188
601   1  0.7900 29.081410 29.144262  6.630118
602   1  0.7900 31.323042 29.940104 15.996332
603   1  0.7900 33.564674 30.735946 25.362546
604   1  0.7900 35.806306 31.531788 34.728760
605   1  0.7900 38.047938 32.327630 44.094974
606   1  0.7900 40.289570 33.123472 53.461188
607   1  0.7900 29.437427 35.030986  6.630118
608   1  0.7900 31.679059 35.826828 15.996332
609   1  0.7900 33.920691 36.622670 25.362546
610   1  0.7900 36.162323 37.418512 34.728760
611   1  0.7900 38.403955 38.214354 44.094974
612   1  0.7900 40.645587 39.010196 53.461188
613   1  0.7900 33.401888  5.597366  6.630118
614   1  0.7900 35.643520  6.393208 15.996332
615   1  0.7900 37.885152  7.189050 25.362546
616   1  0.7900 40.126784  7.984892 34.728760
617   1  0.7900 42.368416  8.780734 44.094974
618   1  0.7900 44.610048  9.576576 53.461188
619   1  0.7900 33.757905 11.484090  6.630118
620   1  0.7900 35.999537 12.279932 15.996332
621   1  0.7900 38.241169 13.075774 25.362546
622   1  0.7900 40.482801 13.871616 34.728760
623   1  0.7900 42.724433 14.667458 44.094974
624   1  0.7900 44.966065 15.463300 53.461188
625   1  0.7900 34.113922 17.370814  6.630118
626   1  0.7900 36.355554 18.166656 15.996332
627   1  0.7900 38.597186 18.962498 25.362546
628   1  0.7900 40.838818 19.758340 34.728760
629   1  0.7900 43.080450 20.554182 44.094974
630   1  0.7900 45.322082 21.350024 53.461188
631   1  0.7900 34.469939 23.257538  6.630118
632   1  0.7900 36.711571 24.053380 15.996332
633   1  0.7900 38.953203 24.849222 25.362546
634   1  0.7900 41.194835 25.645064 34.728760
635   1  0.7900 43.436467 26.440906 44.094974
636   1  0.7900 45.678099 27.236748 53.461188
637   1  0.7900 34.825956 29.144262  6.630118
638   1  0.7900 37.067588 29.940104 15.996332
639   1  0.7900 39.309220 30.735946 25.362546
640   1  0.7900 41.550852 31.531788 34.728760
641   1  0.7900 43.792484 32.327630 44.094974
642   1  0.7900 46.034116 33.123472 53.461188
643   1  0.7900 35.181973 35.030986  6.630118
644   1  0.7900 37.423605 35.826828 15.996332
645   1  0.7900 39.665237 36.622670 25.362546
646   1  0.7900 41.906869 37.418512 34.728760