LAMMPS data file via write_data, version 29 Aug 2024, timestep = 52358, units = metal

4875 atoms
4 atom types

-75.93510972617328 104.29481372619861 xlo xhi
-65.76172841826158 90.32195041828041 ylo yhi
-284.8731090245753 391.2654890125637 zlo zhi
-90.11498714672197 0 0 xy xz yz

Masses

1 6.941
2 180.94788
3 15.9994
4 18.998403

Atoms # charge

3306 4 1 -30.400552907734692 -65.14689085640816 -280.24889601939736 0 1 0
2214 3 0 75.05762030646805 -61.24042872433361 -280.458349738037 -5 -5 1
2405 3 0 19.332523051586477 -37.754365432670205 -284.53542438465007 3 0 1
1704 3 0 -57.65877268101107 -31.486872277384073 -278.5603168800055 3 3 1
15 1 -1 -93.43813834157012 -28.799169002814196 -280.00168888711886 -3 -1 1
4709 4 1 -92.48881171771426 -27.910035012909617 -282.0295501338877 -2 -1 1
4764 4 1 66.52998195765524 -23.802114245498863 -281.60126403099815 -1 0 1
4424 4 1 -5.098155396291176 -16.470076539781886 -279.81035604056734 -1 0 1
84 1 -1 34.20828508673965 -17.117362566518175 -280.5909837494585 0 0 0
1439 2 -2 67.72233949712499 -22.34649514766683 -282.90579824379563 -1 0 1
3815 4 1 68.86881677706212 -20.935878124633227 -284.30169536341293 -1 0 1
1374 2 -2 -6.375277238893091 -14.973915900034406 -278.6335547033579 0 0 1
2337 3 0 -48.06277722776271 -8.936047837337455 -283.1255462094623 2 0 1
605 1 -1 56.00635503870659 -2.2063607526219045 -280.21625831796655 -1 -2 1
4285 4 1 56.63596372935645 -2.393386265746969 -282.5322685995431 -2 -1 1
1455 2 -2 -53.19577737087797 2.5395116302134113 -279.7603614361477 1 1 1
3709 4 1 -54.386470986719885 1.6884587381839964 -278.0040612324017 1 1 1
3601 4 1 -52.16096532064458 3.332219845752462 -281.6495125363879 1 1 0
3276 4 1 19.455793471795673 -1.5333527655584618 -284.28809903492225 -1 -1 0
4785 4 1 -99.78883611101419 11.73689968378065 -278.17591420429636 0 0 1
1480 2 -2 -34.849695219835986 10.715212207516487 -280.98628444557824 -1 -1 1
4805 4 1 -34.811337096557494 9.900248972865157 -283.131114772699 -1 -1 1
4494 4 1 -34.27516561573432 11.2410299863202 -278.8335162069327 -1 0 1
965 2 -2 20.34305321501047 17.589046081743163 -277.9978041099133 0 0 1
2437 3 0 -122.43944623852312 26.10532070975941 -282.01448443179993 0 -2 1
3895 4 1 -74.65771880047097 21.28510476584151 -278.6975370302282 -1 0 1
4334 4 1 -74.14935843292707 23.31701172723146 -282.1738244497291 0 0 1
1030 2 -2 -73.67922050086003 21.484121052051194 -280.7777660879589 -1 -1 1
374 1 -1 -72.12391796263466 24.751489169176836 -282.18964961287094 2 3 1
3504 4 1 -71.49490995740797 21.86112635278272 -281.5369996328145 -1 0 1
486 1 -1 -22.651227945847232 22.717948540426704 -277.99455400832363 0 0 0
3695 4 1 21.60731872878435 19.445269098091146 -278.4486192553099 0 0 1
4355 4 1 -54.771743798476365 32.16414067546377 -278.4438505263062 0 0 1
377 1 -1 -55.28501780056247 36.67525887851484 -283.8352330913649 1 3 1
3170 4 1 -54.9276054931507 35.20576643116442 -281.82564793449734 -1 0 1
1414 2 -2 -54.56813142416236 33.87214043087933 -279.94268169281565 -1 0 1
2131 3 0 6.947514208258596 35.389204799183815 -279.9384436983096 -1 0 1
4145 4 1 -99.36417475361107 45.79515064715059 -278.75274189594194 0 0 1
1080 2 -2 -101.02210790796124 44.83776480508821 -280.1748005044402 0 -1 1
3865 4 1 -101.68495654247458 47.10372130941724 -279.7684751873007 1 0 1
2813 4 1 -99.66018811614654 46.19319673745207 -281.68329451885756 2 1 0
4346 4 1 -101.52590246406972 43.678711597423415 -282.15824818753634 1 0 0
538 1 -1 -100.8134215040907 45.431814492577246 -283.8336863822228 2 1 0
4827 4 1 -69.27625927916597 45.88026978602082 -279.7497746926353 0 0 1
401 1 -1 -69.52179909643523 43.48104068065285 -280.31254308260975 -2 -2 0
3289 4 1 -18.89508521359423 43.82604422228215 -284.7996340774834 -3 -2 1
558 1 -1 -16.84611460032037 45.0792612818412 -284.8282144253289 -3 -3 1
291 1 -1 6.345763678476175 46.540250259778276 -284.7522317221179 -1 1 0
1020 2 -2 -99.39888096640082 47.89989931960463 -279.9369331294472 0 0 1
4621 4 1 -98.27418312916538 49.8328512031337 -280.56042039112435 1 0 0
577 1 -1 -93.218946185567 53.19031088115548 -280.2350365259647 2 1 0
4524 4 1 -91.1256160369386 54.45735765853662 -280.31131109091945 0 0 1
1465 2 -2 -68.26547973041318 47.941163146435 -280.21816383324153 1 0 1
399 1 -1 -69.106818934952 51.02399628689692 -282.20577142891074 -1 0 1
4666 4 1 -67.87902063391127 48.76120852428487 -282.3798047436623 0 0 0
4201 4 1 -69.02681567619997 50.1116019411628 -279.84988309293027 1 -1 0
984 2 -2 -90.05832793210716 55.49241539022448 -278.41543581380273 1 0 1
4176 4 1 -88.74858920132468 57.32245709417715 -279.93919515768147 1 -1 0
980 2 -2 -87.71437246504901 58.10464405975114 -277.94362944293437 1 -1 1
4624 4 1 -87.56530794855712 55.70269369091237 -277.9055209420556 0 -2 0
2237 3 0 -78.12098209531952 61.170788596796854 -279.0339835970871 1 2 0
2029 3 0 -76.59946314756756 64.72805284569631 -282.0965151196347 1 3 0
1638 3 0 18.771405813624398 72.28004984022579 -283.77832225004744 -1 0 1
4290 4 1 14.981893944360863 74.05316972879734 -282.5261328600644 0 0 0
1699 3 0 -147.87795327299693 80.74886159238491 -278.1294805733436 1 -4 1
2430 3 0 -22.3250377787406 80.91880429003979 -280.7388765236285 -4 -2 0
1542 3 0 15.761111327074374 76.9923267497065 -282.84716304923563 -4 -2 0
2357 3 0 13.892441571706954 82.03171742576117 -282.6562306701797 1 0 0
1311 2 -2 -121.81730950040404 89.44465972868127 -279.09511800360343 0 0 0
2066 3 0 -121.61836613947082 86.28982466552932 -280.5080025731845 3 -1 0
1840 3 0 -118.98705431330623 87.64263811529403 -279.2527008237193 5 1 2
4826 4 1 -123.02043747666451 87.85457497788678 -277.9707759795761 0 -1 0
1694 3 0 13.675402345928006 85.74775244951255 -283.898429971501 0 0 1
2520 3 0 3.9431909245632397 -62.50087642381801 -274.934290806264 1 0 1
225 1 -1 93.81832486413232 -64.74198589843097 -273.4288825301715 -1 1 1
1174 2 -2 -41.46651539646394 -55.28238676273582 -275.57987533806903 0 1 1
3469 4 1 -43.45726241335125 -54.17444333196297 -275.353210193879 1 1 1
3519 4 1 -39.47659392478103 -56.38943220711443 -275.8375846603822 0 1 1
4376 4 1 -5.328544491044994 -54.843376527220705 -271.5733378970371 0 2 0
695 1 -1 46.038057816118325 -54.21453616216721 -273.2459148389924 1 1 1
4609 4 1 45.086148485896544 -55.83466575330769 -271.7488182979807 1 1 1
2020 3 0 -21.284571558681982 -48.86510126705731 -272.7966505302222 2 1 1
4566 4 1 83.38043066220693 -32.177665798724604 -271.55812430403 -1 1 0
2341 3 0 -20.862749091968112 -27.523828834656072 -276.2994793263502 -1 4 0
2656 4 1 -19.189637845385178 -28.538553691955414 -272.00802276633203 0 0 0
896 2 -2 -18.300568083882588 -28.260985863598037 -274.0924779594622 0 1 0
4037 4 1 -17.40323799561522 -27.825283664502066 -276.16330088666615 0 0 0
3610 4 1 37.291298453736104 -20.08254049956782 -272.0409475455732 -1 -1 1
3200 4 1 -7.8152193657987254 -13.559975992609829 -277.54396136030715 -1 0 1
4075 4 1 -82.50590726576283 -6.681810607067362 -277.0753963189646 0 0 1
1186 2 -2 -84.2973244962734 -6.082997961939249 -275.77649407721293 1 0 0
2841 4 1 -85.5973249392686 -5.282970941540434 -274.0692574417431 1 0 0
4824 4 1 17.578360726290853 -3.4841802967888214 -272.2675849735369 0 1 1
4554 4 1 15.655144742110693 0.5790262555273387 -271.62082495179885 0 0 1
1479 2 -2 16.896574199797683 -1.3451156266368116 -271.44552657820043 0 0 1
954 2 -2 -98.18575539151067 11.230210426325613 -276.61817148130797 1 0 1
3835 4 1 -96.62245794525903 10.651689162195353 -275.04913949344825 1 -1 1
2518 3 0 -99.18211923078869 12.235890347905098 -273.7279029089464 0 1 0
2393 3 0 -102.63532688347317 13.010102272043198 -276.76699941525715 -2 -1 1
4128 4 1 -46.7894736439804 14.56428335434714 -272.6842279358564 -1 0 0
3993 4 1 -43.09850664644789 13.703761881674481 -275.8261117123041 1 -1 0
353 1 -1 -45.069829264369034 14.11608882866011 -274.3992040582908 1 -1 0
2964 4 1 19.13126808745467 15.682986071565836 -277.6179424709864 0 0 1
2257 3 0 -25.7360916021158 22.693696005891198 -277.4266301478208 3 4 0
2568 3 0 -28.72126535493984 22.82146735358228 -276.3240023568961 0 0 1
2326 3 0 -21.309229949750076 19.83701615187225 -277.07703045527495 -2 -2 1
1549 3 0 -11.102197336094306 31.984370565968817 -273.8238193239096 2 3 2
3536 4 1 22.096708546187145 32.24454562187607 -272.9741757391599 0 1 0
2446 3 0 -113.81928950490098 33.680750030972845 -270.9670402048807 0 0 0
1870 3 0 -3.9497278778261773 40.23101052483371 -271.00847928936975 0 1 1
3541 4 1 19.728038634404413 35.85934296316053 -272.36156570105953 0 1 0
796 2 -2 20.441221308600802 33.68849438269656 -272.3221186348385 0 1 0
2496 3 0 41.093877154439 35.8789749857263 -274.6698347758177 0 -1 0
2744 4 1 -92.1303739820288 54.41558013053054 -277.6276178122784 0 0 1
2870 4 1 -89.64265801249553 57.25933866891344 -276.80395082521744 1 -1 1
2846 4 1 -86.71171058899549 60.02613959848354 -277.072412311601 2 2 0
2746 4 1 4.152938849512395 89.08360881039366 -272.7429834784724 0 0 0
3141 4 1 54.0781247862658 -61.090077332032216 -265.5137549459774 -1 1 0
1049 2 -2 54.993763098214444 -62.31359335573551 -267.2179042815498 -1 1 1
3964 4 1 56.01119631228734 -63.59180214745294 -268.82576355297925 0 1 1
1580 3 0 -6.743737446785602 -52.88757442051957 -267.7761508936226 -1 -4 0
4571 4 1 -7.356930768825038 -56.13637782821658 -267.67366681541785 0 2 0
1182 2 -2 -6.350166454730541 -55.458452430757355 -269.6307153942805 0 2 0
2193 3 0 -40.22121289740358 -42.73423125936769 -264.9741438016985 -1 2 0
2064 3 0 -13.602558251308167 -38.984957226943806 -266.5058764277072 2 -1 0
28 1 -1 54.254288278287746 -39.059607426387956 -265.51003355170945 2 5 1
2723 4 1 56.17896351539342 -40.26284623980787 -264.716716355015 2 5 1
2572 3 0 -15.770117106748117 -36.18515779601758 -263.94390161262993 0 -2 0
2919 4 1 4.137620602988861 -32.143153409488015 -265.7404156555731 -1 0 1
1019 2 -2 5.464518578100311 -31.597655914396825 -267.5271436567454 -1 0 1
3839 4 1 6.780229044011762 -31.03256005179368 -269.31723101230136 0 0 1
3810 4 1 40.27195366065352 -36.944942001854116 -264.6355882363737 0 0 1
3371 4 1 44.83019688431921 -36.6698278455443 -264.2889037241798 0 1 0
1125 2 -2 42.53804525876704 -36.73557687645945 -264.4029406258501 0 0 1
4766 4 1 82.0042632843166 -33.97501218101451 -267.5817994540797 -1 1 0
1146 2 -2 82.84684914554002 -33.070531887774635 -269.5181864031104 -1 1 0
2206 3 0 -55.67659419855721 -25.49288860038852 -264.1302531489169 4 1 1
2522 3 0 9.987300867829461 -30.248049289613263 -265.03802820476346 0 0 0
2250 3 0 21.747420065743583 -25.886949993088642 -267.91050102225114 -3 1 0
3756 4 1 -97.6162663949774 -20.412469467276715 -264.7086767444818 0 0 0
2630 4 1 -37.063041877181014 -19.230825144676565 -269.96762610946496 0 1 1
960 2 -2 -35.747282213795785 -19.180500409895885 -268.0948553755911 0 1 1
4220 4 1 -34.4786680750054 -19.210352776727852 -266.1863239940042 0 1 1
1371 2 -2 37.957500395342294 -20.834522875074683 -269.97094464329166 -1 0 0
2976 4 1 38.57454626418111 -21.53252827035986 -267.88247522083856 -1 -1 0
3560 4 1 -70.38765878658265 -10.300541217930373 -270.7417556457047 0 0 1
1264 2 -2 -69.14293529648572 -11.70416749048971 -269.4298877382607 0 1 1
3350 4 1 -67.96292092004732 -13.074727827278892 -268.0220125531883 0 1 1
4149 4 1 -101.72183072229132 -5.041636647819317 -267.31269311559396 0 1 1
1100 2 -2 -100.95676606894591 -3.212786586178659 -266.1661428877691 0 1 1
901 2 -2 18.86338957339261 -4.615112921809164 -270.59710491522026 0 0 0
3786 4 1 18.246837086621028 -2.4468673724157384 -269.81574190002084 0 0 0
2711 4 1 19.847887294261213 -6.631112529888249 -270.1044009148817 0 0 0
3414 4 1 -100.15649417857307 -1.3767368883634674 -265.05333637525354 0 1 1
1041 2 -2 -26.185276391406404 -0.7355978409044326 -265.56531364282284 -1 0 0
2709 4 1 -26.536966743945904 -0.4337224318209678 -267.8006460770578 0 0 1
867 2 -2 53.79226266255871 -0.9421093144977561 -268.4934749083778 0 0 0
4331 4 1 53.84603391206225 -0.8683186338594595 -270.80700574272674 0 0 0
4391 4 1 54.10407823225684 -1.0540269267986133 -266.24461926228713 -1 0 0
3381 4 1 -57.50094149410475 18.628238882044087 -267.8943828331856 1 0 0
12 1 -1 -55.121820130392834 18.64180677684294 -268.7216832909962 -3 -3 -1
1985 3 0 -18.383471342647255 18.461323137285703 -265.8830640433459 1 -2 0
1269 2 -2 45.55631968799766 15.832385511558385 -268.81378245001315 -1 0 1
3721 4 1 44.44591802167352 14.914313252214583 -267.03564425846287 0 0 0
3846 4 1 46.67940434662505 16.772658488771356 -270.57743059998245 1 1 0
4099 4 1 -60.29242079672939 21.835098225155278 -268.62283693737993 -3 -2 1
4266 4 1 -55.98837419161475 21.039897163795857 -268.92383501937235 0 0 0
1266 2 -2 -58.24384114928911 20.834777455025545 -268.26949694281535 0 0 0
4660 4 1 10.663806342539132 40.2855189660082 -268.2204511617359 -2 0 1
1310 2 -2 10.368187293434687 39.257658732085645 -266.15272927242404 -1 0 1
3020 4 1 6.266325675075123 39.654215388633645 -265.622956567617 -1 1 1
241 1 -1 6.009924083924318 37.182199983595666 -265.7711408118423 -1 -1 0
4681 4 1 9.027028330991158 37.405138550268816 -265.5826288664196 -1 0 0
3582 4 1 38.09820899596576 43.234398677182924 -265.3186326124694 -3 -3 0
302 1 -1 36.756751066014914 41.15666675798467 -264.8646814247297 1 0 0
448 1 -1 39.541790181014264 45.535822273461946 -264.07777534960735 -3 -2 0
3206 4 1 39.80466521854805 40.845066651254314 -264.14680154033846 -2 -2 0
1647 3 0 31.273184651323888 53.32488270637535 -269.1274606402239 -2 -5 -1
1000 2 -2 -18.967122535987414 61.43598135152817 -265.94505779190155 -1 0 1
4211 4 1 -17.622974925992146 59.88700430061495 -266.9630473996709 -1 -1 0
2340 3 0 -146.19757835442493 67.09523796457657 -268.5990947904998 2 0 3
2934 4 1 -20.296678963895282 62.86571347365049 -264.7453268286129 -1 -1 1
889 2 -2 -104.53313567902163 75.28852525275221 -264.6959302730201 0 0 1
3230 4 1 -106.2171878649369 73.90067862463061 -265.3387841073373 -1 -1 1
3896 4 1 -85.4804012887566 74.97472959225706 -266.64840873059893 -1 0 0
3795 4 1 -124.9360925052008 79.65533244629589 -265.88776503187955 -1 0 1
646 1 -1 -124.25903345517432 77.37183677707804 -265.58675815842696 -1 0 0
3460 4 1 -102.59324702544883 76.50353461250299 -264.49681313081953 0 0 1
3211 4 1 -88.47720273629298 78.43080565122796 -266.776121665465 0 0 0
1320 2 -2 -86.89241148753084 76.76820467564028 -266.68279096938926 0 0 1
3131 4 1 -72.91904063882558 83.01378497962182 -264.54183506995315 -2 -1 0
1518 3 0 31.25969948530438 -61.11343770976378 -260.505497540817 -2 2 1
2140 3 0 87.3023977443945 -55.96427672343129 -256.72105443297795 -2 3 1
4328 4 1 -61.17723946882451 -46.91749320701216 -261.97452655023113 1 -1 0
497 1 -1 -62.20346688740954 -48.00088622050837 -260.09176525822505 1 0 0
801 2 -2 -4.8742004580385725 -45.542881735698344 -260.70760843312854 0 0 0
4056 4 1 -17.936341076287995 -37.89130114356382 -259.1741667499824 0 0 0
2201 3 0 -14.375971694863914 -39.319488871339566 -263.0248109798794 1 -2 0
3881 4 1 -5.114934330413462 -43.756195398888764 -262.2491698089753 -1 0 0
2775 4 1 -5.612436054611763 -43.72247062679237 -259.37722911954256 0 1 1
1151 2 -2 -4.22158071147355 -42.195424577809725 -260.6305583280519 0 0 0
3806 4 1 -3.226139494708974 -40.06041450969831 -260.5000269736743 0 1 0
2771 4 1 -2.934791659925338 -44.22454792435329 -260.35131226126936 0 1 0
502 1 -1 -1.580016998386938 -38.177302885853884 -260.3268717242079 -3 -2 0
1379 2 -2 -18.646345494318865 -35.73936009310074 -259.49070429693126 -1 0 1
4820 4 1 -19.565933565381876 -33.667533753767046 -259.8798815589511 0 0 1
2859 4 1 -74.12005262284416 -26.763462113579166 -256.7739641281145 1 1 1
929 2 -2 -71.95810787545912 -26.93637715842158 -257.6615203252442 1 1 1
4300 4 1 -69.87171105315876 -26.883570687873437 -258.4982448426847 0 1 1
2091 3 0 -24.476079398219888 -29.72324292637927 -258.6245651242182 1 1 -1
1707 3 0 -21.071661325679763 -29.640039012642077 -258.18243265234196 -4 -2 0
3450 4 1 54.47145598758978 -26.82767490021974 -258.060862798424 0 1 1
1401 2 -2 54.373274544129444 -24.545939696038026 -258.23693661444713 0 0 0
2528 3 0 79.68140369287629 -24.749728918398034 -262.92610199515394 2 0 0
1289 2 -2 -98.89659895997242 -20.579298322899746 -262.8215348863749 0 0 1
3946 4 1 -100.11747007517788 -20.779012978904788 -260.8887186517252 1 1 0
1648 3 0 -78.83491969219436 -17.92011602788758 -259.4099310683185 -3 -3 2
4227 4 1 54.2640517210058 -22.27147220533641 -258.48405864569503 1 0 0
2053 3 0 4.437406914547722 -9.67697422848019 -260.7604129486298 3 3 0
3296 4 1 65.85358440897271 -14.650218525497266 -258.96014948971026 0 2 0
1226 2 -2 66.25413426572702 -15.449160481769404 -256.8483905721225 0 1 0
1988 3 0 -24.401024618979484 -7.301498968034537 -260.97399029016776 3 3 0
3315 4 1 -25.742046598153053 -1.084681300402238 -263.3365913043806 0 0 1
3715 4 1 -34.13571683497881 11.78555111307162 -257.1963663337001 0 0 1
1081 2 -2 -35.35292380607157 13.226284670304992 -258.490619998282 0 0 0
4630 4 1 -36.541063838009286 14.61748304021711 -259.8742003560198 -1 -1 1
2621 3 0 -34.58928554789233 12.451540607770212 -261.73087250338585 2 0 0
3650 4 1 24.236818108410787 18.5220312452318 -260.64366550179017 -1 0 1
4596 4 1 33.36263131191696 14.954984875838946 -257.27496430787727 0 0 0
3130 4 1 -89.79646420766494 23.47501763615108 -257.2965815667143 0 -1 1
2854 4 1 -89.05866781134135 24.6681391963578 -261.6575862168049 0 -1 1
1221 2 -2 -89.41275008688478 24.088340308969507 -259.47011785657145 1 0 0
935 2 -2 25.675104503058847 20.30830337163016 -260.637661469024 0 0 1
3177 4 1 26.877125075287836 22.25977423276511 -260.666731074438 0 0 0
2545 3 0 -44.1412749808716 28.455307680905975 -263.0530509843449 -4 -6 1
1953 3 0 -20.59623549276101 31.665809408930755 -260.40060297810567 -5 -4 1
2784 4 1 -84.91867363580064 36.27143823735071 -260.3722490341887 0 0 1
815 2 -2 -83.13289533595808 36.15750896708035 -258.93405306972676 0 0 1
4379 4 1 -81.44454015613714 35.83447153568471 -257.4285093568388 0 0 1
995 2 -2 7.224285330529767 39.740893656667055 -263.483566012629 -1 0 1
4540 4 1 9.573940236246969 39.89436698676991 -263.79239185683963 -1 -5 1
3596 4 1 5.163842047310553 39.06740587613757 -262.6616506264436 -1 1 0
325 1 -1 39.34210134520521 39.12392310641826 -262.4865260664479 -2 -1 1
3237 4 1 37.423006370763986 40.85575859675582 -262.22184661094366 1 0 0
2970 4 1 37.343680346294704 44.7784549960497 -263.031264602891 -1 0 1
1010 2 -2 38.6438940535557 42.74021906836518 -263.0449398826373 -2 0 1
4786 4 1 40.76098013478051 43.67853584531798 -262.7541017799985 -1 1 0
2308 3 0 23.36365104484412 50.91385667613292 -262.5731538750558 4 3 1
2497 3 0 -102.46954450082829 57.609576601341416 -260.04239997974736 3 0 0
3440 4 1 -50.74128902483933 73.62373394954929 -260.7557134874775 0 0 1
649 1 -1 -49.28025168926102 73.44089077594779 -262.68828865926974 0 -1 1
197 1 -1 -50.70211844273667 74.36609156749356 -258.41819456069686 -1 0 0
1290 2 -2 -72.27531870650732 82.82566439908041 -262.35939581282724 -2 -1 1
3625 4 1 -71.13692057139254 82.8543250105208 -260.36420924138343 -1 0 1
1893 3 0 15.258710054509024 88.23327146071975 -262.2495446596076 1 2 1
4572 4 1 8.255169633700987 -65.44717007654447 -252.8507572513063 1 1 0
138 1 -1 95.65325919555427 -65.4365188106025 -250.51995393883806 -4 -2 1
4794 4 1 -74.80270783496503 -57.392210386512104 -251.90399280937206 1 1 1
944 2 -2 -76.87077519085736 -56.826105205450546 -252.72493707570825 1 1 1
3725 4 1 -79.08049688104101 -56.448415926234205 -253.209123308793 1 1 1
1711 3 0 12.180433268055936 -52.537261259301005 -252.5711789006482 -2 0 0
1521 3 0 52.23227489720024 -45.02826146450865 -252.72090103395973 -2 0 1
465 1 -1 -39.749432356821956 -33.890888575123704 -253.25345575948043 -1 1 1
3446 4 1 1.5403093317262488 -31.526369660843983 -254.0365994831601 -1 -2 0
711 1 -1 2.4093122279695223 -30.8980615126177 -251.8842824233447 -1 -2 0
2438 3 0 39.96656016706572 -34.63780760855667 -251.46985129949695 0 0 1
3681 4 1 -78.72589063607697 -26.91149005517562 -250.47185281410867 0 0 0
1254 2 -2 -20.662175663760323 -24.35214429233193 -256.2441287571856 0 0 1
3478 4 1 -19.573307181953624 -26.368389737236228 -256.4737546678433 1 1 1
3105 4 1 -85.91974925969777 -17.442562259736683 -252.1563559044822 0 1 1
1201 2 -2 -86.24659222226143 -16.143964109281498 -250.30879407057262 0 1 0
4359 4 1 -21.626702105796213 -22.314469986147287 -255.91449390724378 1 1 1
2535 3 0 38.939436557740606 -20.741450210068997 -250.90695351710585 -1 1 1
2890 4 1 66.56498222977713 -16.07929598529899 -254.66519157834975 -1 1 1
1543 3 0 -96.92816836878401 -2.5675695508312515 -254.48185754539566 -1 -1 0
3818 4 1 -10.500603324996959 -4.500880645323015 -255.0530774624145 -1 1 0
1223 2 -2 -12.22773679596748 -3.2374770766463996 -254.19723094294636 -1 1 0
4186 4 1 -69.01105489869754 1.5536228036946653 -256.15689964951497 -1 0 0
930 2 -2 -68.94394607923682 -0.6444627194564418 -255.61596571030174 -1 0 1
1554 3 0 -65.53257459662942 1.0439818374035497 -254.94721248653352 3 -1 0
2847 4 1 -13.883181579659805 -1.8662239561557428 -253.42758232710196 0 2 0
2476 3 0 5.287785017720196 -1.24760997158765 -251.96578960042675 3 2 0
4815 4 1 8.803392790988653 1.561739729036546 -253.11383606266503 0 0 1
604 1 -1 9.07247378978171 -0.6748828664417346 -251.91983899238056 1 -2 1
4082 4 1 7.568608007250418 0.9232102409430496 -250.24610364876284 0 0 0
1136 2 -2 8.226140948342177 2.970719638635231 -251.32849926745567 -1 0 0
4576 4 1 7.739165531706462 4.794477988806321 -249.87625213702913 0 -1 0
1255 2 -2 20.231421748735897 3.099471850175931 -251.421780079939 -1 -1 1
4850 4 1 19.053893381914307 4.542121706083492 -250.03059796942335 0 0 1
4869 4 1 21.080836641303605 2.5722414810019956 -253.58604056124844 0 0 1
2800 4 1 21.681974688062994 1.2264471146798712 -251.2784934021205 -1 0 1
1187 2 -2 22.614458784209134 0.7347612557219776 -253.41659312826923 0 0 0
4022 4 1 24.056960211694914 -0.8547811213892658 -254.2396259440885 0 1 0
1057 2 -2 -107.5588144398347 10.326229202914277 -250.58221626016825 -1 -1 0
3762 4 1 -105.35103357784325 10.366924355020444 -251.3744598784168 -1 -1 0
1878 3 0 -86.55133179565487 9.03112805694856 -253.25326409863058 1 0 0
1677 3 0 36.935071867156395 7.586566592652289 -256.5255600254203 -6 -4 0
2985 4 1 35.78447538784742 11.964273291844094 -254.80868205040736 0 0 1
3885 4 1 -66.04103008007343 17.660091736175858 -250.18956280441094 0 0 1
1566 3 0 -17.017835711594834 15.055192360674596 -249.9860354009209 -1 0 -1
1086 2 -2 34.70990095262388 13.528375290593118 -256.0943537644067 0 0 0
2270 3 0 -88.13227008294992 25.738465616704033 -255.85027023999024 2 2 0
546 1 -1 -65.7781308206927 25.085364956287762 -255.509816648464 -5 -2 -1
3611 4 1 13.645669622279598 26.45915815994715 -252.38167426195872 -1 -1 0
4670 4 1 47.585355992776016 24.924774410938042 -253.3428528006843 -1 0 1
2093 3 0 -124.18956597384042 33.353466415227146 -255.53264645840775 5 2 1
3404 4 1 -71.24861938087099 31.84998227576679 -252.76231996988125 0 0 1
1196 2 -2 -73.24233901978982 33.01440820886265 -252.85696881444858 0 1 0
3384 4 1 15.606935372184807 27.824956221309975 -256.2840733596688 -2 -1 1
1345 2 -2 14.531372853095945 27.24278566216431 -254.34547210576793 -1 -1 1
1202 2 -2 47.95254143274394 26.756286895856988 -252.01887568556162 0 0 0
3952 4 1 48.399459860327056 28.72891389064189 -250.93696904259346 0 0 0
986 2 -2 -121.06468322579335 36.49810159176711 -253.5754078279851 1 0 0
3866 4 1 -121.25308671473053 34.74904530707988 -251.9539146071305 1 0 0
2736 4 1 -119.4628895054793 35.53234715359737 -255.0530835198102 1 0 0
1415 2 -2 -119.29073370815544 34.7465178328346 -250.59351313096892 0 -1 1
4475 4 1 -122.58861409565667 38.226040506754245 -253.8542688200628 1 0 1
3040 4 1 -118.91982189032043 36.42923741412855 -252.3582792904231 0 -1 1
4629 4 1 -117.66357742466516 33.83477108323275 -252.095503696513 0 -1 1
981 2 -2 -117.35980979813462 35.342032873268835 -253.93353344554174 1 0 0
3337 4 1 -115.34328547005433 36.04464180165215 -254.84207021258896 1 0 0
4246 4 1 -75.19129465493037 34.198203366418866 -252.72863255929664 1 1 0
299 1 -1 -132.54002677177303 52.94020550800238 -251.0777135580422 1 2 1
3919 4 1 -130.59700717017193 51.527302520215414 -251.0712159229747 1 2 1
2929 4 1 -87.72644780353299 51.173425843242654 -253.56691745612034 1 0 1
949 2 -2 -87.67553655522448 53.07759996656199 -252.2676803875169 0 0 1
2631 4 1 -86.70915578163557 53.8509853732925 -250.25971358379056 0 -1 0
2245 3 0 -28.806437185158323 53.68356295019859 -251.686034365178 -1 1 1
1176 2 -2 -12.472730052334263 53.63345659788342 -253.02906743771467 0 0 0
3190 4 1 -13.087948966400006 54.84853864745793 -254.96942797227297 -1 -1 1
3936 4 1 -12.176646232035147 51.41595200196869 -252.4561596269792 0 0 0
2189 3 0 -121.3936711460877 60.1136752335467 -251.90399912277144 3 -1 1
3171 4 1 -88.35240632502334 55.33621189558586 -252.34279274502003 0 0 0
419 1 -1 -87.32708374240755 56.29317900091448 -250.24591318443007 -1 0 1
527 1 -1 -12.511848496583042 57.283799827635164 -254.5794236236248 -1 -1 0
4281 4 1 -11.909699281392179 55.85371110587026 -252.4975735164804 0 0 0
4690 4 1 5.801584943231646 61.1652604007829 -253.58549686810645 0 1 1
1435 2 -2 4.647285482300489 62.41066773098433 -252.038123840902 0 0 1
3484 4 1 3.080534458734732 63.55893961389174 -250.8232967127506 0 0 1
4444 4 1 -51.78032049591387 75.93026479147295 -251.9448859586325 0 -1 1
1349 2 -2 -50.79015815178721 74.76417686690152 -253.71001718618962 0 0 1
2689 4 1 -51.20533383908689 74.58940639608866 -256.00198627455404 0 0 1
3216 4 1 -48.92440440095042 75.58554401140626 -252.55650215282012 0 0 0
3816 4 1 -25.088837271497866 75.31371745267359 -255.57556155909035 0 0 0
1026 2 -2 -26.42429810651595 73.68515713070931 -256.4081727183319 0 -1 0
280 1 -1 -50.01993748171586 77.25923512369963 -250.72574260996956 -2 -3 1
1784 3 0 -13.142601103264504 83.62771829579336 -250.61289296995935 3 -1 0
2641 4 1 -74.77745199399038 -63.88631568098185 -245.08974788436268 -1 0 0
951 2 -2 -72.92398497133861 -65.21440251213316 -245.26923191871327 0 0 0
2026 3 0 11.211756483060071 -65.0722895542503 -245.90832527322794 -3 -1 -1
4840 4 1 92.45782841541374 -59.004159986913876 -244.1670539100673 1 1 1
156 1 -1 94.59029432258897 -59.795983775598394 -245.21573750353852 0 1 0
4260 4 1 97.10119706702316 -64.68537491106717 -248.79301496015194 -1 1 1
2504 3 0 -66.40440677174712 -58.37049777995216 -247.7902272261624 -2 -2 1
1440 2 -2 -53.39377798871754 -54.59559604838462 -244.1291933383558 0 0 1
3231 4 1 -54.495601963407054 -56.709041271373586 -244.4052920917107 0 0 0
2651 4 1 -55.71000189324318 -54.456622545228264 -243.58593743211637 0 0 0
786 2 -2 -56.85921890971568 -56.50304168960319 -243.9735325143701 0 0 0
2690 4 1 -59.037005329935866 -57.217591209501286 -244.20766737215746 0 1 1
3965 4 1 -51.692714047146936 -53.36548588859306 -243.1903982094168 0 1 1
4529 4 1 94.04050906433979 -58.40839576743973 -247.22680129631323 2 -1 1
424 1 -1 91.9810216323177 -57.556334684345344 -246.13408550724185 2 0 1
1557 3 0 -44.63031398459803 -45.18548234038501 -244.4584867362531 -1 -2 1
2480 3 0 -7.369346793080084 -47.04422061452953 -246.02688144368608 1 -2 0
3761 4 1 2.0059814783564605 -51.15523682465245 -244.9609761387526 0 1 0
846 2 -2 3.172702471043948 -49.12434597238901 -245.15625107397872 1 1 0
4050 4 1 4.2527636149442 -47.2022607026297 -245.5887043255388 0 1 1
3579 4 1 -32.13314904435243 -38.73099265064863 -249.56633506474634 1 1 1
1364 2 -2 -30.67730967813388 -40.258236692583516 -248.6318859316802 1 1 1
4844 4 1 -29.23786650474687 -41.84748219838165 -247.85649896373667 1 1 1
2147 3 0 -8.811864297459962 -44.339172062912766 -244.4361437788713 0 -2 0
4635 4 1 11.134547240535795 -43.32765883006917 -244.83220263306683 -2 -1 1
770 2 -2 12.391405923252634 -41.56446463907801 -245.41251207550602 -1 0 1
3165 4 1 13.88495863107012 -39.89657572957218 -246.13985973779154 -1 0 1
1629 3 0 54.2935290846644 -43.65210040268299 -249.60597334731648 1 -1 1
1562 3 0 15.382107157523748 -32.46248252333178 -243.95261960079313 -2 -2 1
1456 2 -2 -80.885400264785 -27.132517923799412 -249.57408804041978 0 0 0
3741 4 1 -82.83682020070644 -27.810721368739273 -248.6780241442962 0 0 0
1675 3 0 56.74530730561561 -18.862718892596533 -248.90200613991823 0 2 1
3271 4 1 71.3574565615284 -17.633247565239714 -243.69549041249465 -1 1 0
471 1 -1 69.92513295618049 -18.22916891955785 -245.68567314064543 -2 1 0
2816 4 1 -86.59509105823425 -15.16933662855022 -248.25186257212957 0 2 0
2617 3 0 22.166041953123823 -15.965187773835815 -246.80217454449257 1 3 0
3640 4 1 22.800167686383887 -12.700898569475804 -248.84402204179855 0 1 1
1275 2 -2 24.677694452713396 -13.70741094021124 -248.0081513235063 0 1 1
3760 4 1 26.5618077599881 -14.639805604415464 -247.0929785599363 0 1 1
2960 4 1 -89.70943385275005 -8.156068885365798 -245.39668053870253 1 0 1
1405 2 -2 -89.21812378265392 -6.208202257297977 -244.2672466636202 0 -1 1
4336 4 1 -88.82146894231062 -4.266857914934086 -243.12601082121807 1 0 0
2601 3 0 -97.29920840463404 1.2776921008677533 -245.53235869003632 -5 -7 1
2347 3 0 -59.227383168872656 2.6473039680423227 -248.57277962051387 2 0 1
3821 4 1 -16.685121136098452 2.0033956164739095 -247.11342172100754 0 1 0
821 2 -2 -18.13272221545867 3.5566563799397244 -246.29141975054853 0 1 0
3690 4 1 -19.656924705600886 5.069845099385631 -245.4577816981468 0 0 1
3799 4 1 9.889752774614678 -1.06627360294695 -249.53121220749878 0 -1 1
1061 2 -2 8.930306687522574 0.676331166090506 -248.28766147433748 0 0 0
1036 2 -2 8.98764542195633 4.602841005229749 -247.83202899314463 -1 0 0
4726 4 1 8.371546398569592 2.4986958771714143 -246.85339833961538 0 -1 0
3456 4 1 9.68820012739856 2.763191222665313 -249.36758014617772 0 0 0
1634 3 0 46.88434455486184 3.5208548769610246 -248.46517036412195 1 2 0
4042 4 1 62.17315859554425 2.260923035444165 -245.35899536459127 -1 0 0
1396 2 -2 63.578310569254924 3.7716277296575527 -246.47684673901298 -1 1 0
3542 4 1 -109.58139032868793 10.392643826543207 -249.5916732636452 -1 -1 0
4401 4 1 -115.65470052576256 5.538608592926224 -247.45081614630493 0 0 0
2900 4 1 10.318574182043989 6.192693261962063 -246.7854327820993 -1 0 1
4239 4 1 14.800119469897282 8.86757396476267 -246.01443320221404 0 0 1