Generated by pymatgen.io.lammps.data.LammpsData

4875  atoms

   4  atom types

0.000000 28.359704  xlo xhi
0.000000 24.560222  ylo yhi
0.000000 106.392380  zlo zhi
-14.179856 0.000000 0.000000  xy xz yz

Masses

1    6.941000
2  180.947880
3   15.999400
4   18.998403

Atoms

1     1 0.0000   1.251054  2.224508   3.021395
2     1 0.0000   1.251054  2.224508  24.299871
3     1 0.0000   1.251054  2.224508  45.578347
4     1 0.0000   1.251054  2.224508  66.856823
5     1 0.0000   1.251054  2.224508  88.135299
6     1 0.0000  -1.584917  7.136552   3.021395
7     1 0.0000  -1.584917  7.136552  24.299871
8     1 0.0000  -1.584917  7.136552  45.578347
9     1 0.0000  -1.584917  7.136552  66.856823
10    1 0.0000  -1.584917  7.136552  88.135299
11    1 0.0000  -4.420888 12.048596   3.021395
12    1 0.0000  -4.420888 12.048596  24.299871
13    1 0.0000  -4.420888 12.048596  45.578347
14    1 0.0000  -4.420888 12.048596  66.856823
15    1 0.0000  -4.420888 12.048596  88.135299
16    1 0.0000  -7.256859 16.960641   3.021395
17    1 0.0000  -7.256859 16.960641  24.299871
18    1 0.0000  -7.256859 16.960641  45.578347
19    1 0.0000  -7.256859 16.960641  66.856823
20    1 0.0000  -7.256859 16.960641  88.135299
21    1 0.0000 -10.092831 21.872685   3.021395
22    1 0.0000 -10.092831 21.872685  24.299871
23    1 0.0000 -10.092831 21.872685  45.578347
24    1 0.0000 -10.092831 21.872685  66.856823
25    1 0.0000 -10.092831 21.872685  88.135299
26    1 0.0000   6.922995  2.224508   3.021395
27    1 0.0000   6.922995  2.224508  24.299871
28    1 0.0000   6.922995  2.224508  45.578347
29    1 0.0000   6.922995  2.224508  66.856823
30    1 0.0000   6.922995  2.224508  88.135299
31    1 0.0000   4.087024  7.136552   3.021395
32    1 0.0000   4.087024  7.136552  24.299871
33    1 0.0000   4.087024  7.136552  45.578347
34    1 0.0000   4.087024  7.136552  66.856823
35    1 0.0000   4.087024  7.136552  88.135299
36    1 0.0000   1.251052 12.048596   3.021395
37    1 0.0000   1.251052 12.048596  24.299871
38    1 0.0000   1.251052 12.048596  45.578347
39    1 0.0000   1.251052 12.048596  66.856823
40    1 0.0000   1.251052 12.048596  88.135299
41    1 0.0000  -1.584919 16.960641   3.021395
42    1 0.0000  -1.584919 16.960641  24.299871
43    1 0.0000  -1.584919 16.960641  45.578347
44    1 0.0000  -1.584919 16.960641  66.856823
45    1 0.0000  -1.584919 16.960641  88.135299
46    1 0.0000  -4.420890 21.872685   3.021395
47    1 0.0000  -4.420890 21.872685  24.299871
48    1 0.0000  -4.420890 21.872685  45.578347
49    1 0.0000  -4.420890 21.872685  66.856823
50    1 0.0000  -4.420890 21.872685  88.135299
51    1 0.0000  12.594935  2.224508   3.021395
52    1 0.0000  12.594935  2.224508  24.299871
53    1 0.0000  12.594935  2.224508  45.578347
54    1 0.0000  12.594935  2.224508  66.856823
55    1 0.0000  12.594935  2.224508  88.135299
56    1 0.0000   9.758964  7.136552   3.021395
57    1 0.0000   9.758964  7.136552  24.299871
58    1 0.0000   9.758964  7.136552  45.578347
59    1 0.0000   9.758964  7.136552  66.856823
60    1 0.0000   9.758964  7.136552  88.135299
61    1 0.0000   6.922993 12.048596   3.021395
62    1 0.0000   6.922993 12.048596  24.299871
63    1 0.0000   6.922993 12.048596  45.578347
64    1 0.0000   6.922993 12.048596  66.856823
65    1 0.0000   6.922993 12.048596  88.135299
66    1 0.0000   4.087022 16.960641   3.021395
67    1 0.0000   4.087022 16.960641  24.299871
68    1 0.0000   4.087022 16.960641  45.578347
69    1 0.0000   4.087022 16.960641  66.856823
70    1 0.0000   4.087022 16.960641  88.135299
71    1 0.0000   1.251051 21.872685   3.021395
72    1 0.0000   1.251051 21.872685  24.299871
73    1 0.0000   1.251051 21.872685  45.578347
74    1 0.0000   1.251051 21.872685  66.856823
75    1 0.0000   1.251051 21.872685  88.135299
76    1 0.0000  18.266876  2.224508   3.021395
77    1 0.0000  18.266876  2.224508  24.299871
78    1 0.0000  18.266876  2.224508  45.578347
79    1 0.0000  18.266876  2.224508  66.856823
80    1 0.0000  18.266876  2.224508  88.135299
81    1 0.0000  15.430905  7.136552   3.021395
82    1 0.0000  15.430905  7.136552  24.299871
83    1 0.0000  15.430905  7.136552  45.578347
84    1 0.0000  15.430905  7.136552  66.856823
85    1 0.0000  15.430905  7.136552  88.135299
86    1 0.0000  12.594934 12.048596   3.021395
87    1 0.0000  12.594934 12.048596  24.299871
88    1 0.0000  12.594934 12.048596  45.578347
89    1 0.0000  12.594934 12.048596  66.856823
90    1 0.0000  12.594934 12.048596  88.135299
91    1 0.0000   9.758963 16.960641   3.021395
92    1 0.0000   9.758963 16.960641  24.299871
93    1 0.0000   9.758963 16.960641  45.578347
94    1 0.0000   9.758963 16.960641  66.856823
95    1 0.0000   9.758963 16.960641  88.135299
96    1 0.0000   6.922992 21.872685   3.021395
97    1 0.0000   6.922992 21.872685  24.299871
98    1 0.0000   6.922992 21.872685  45.578347
99    1 0.0000   6.922992 21.872685  66.856823
100   1 0.0000   6.922992 21.872685  88.135299
101   1 0.0000  23.938817  2.224508   3.021395
102   1 0.0000  23.938817  2.224508  24.299871
103   1 0.0000  23.938817  2.224508  45.578347
104   1 0.0000  23.938817  2.224508  66.856823
105   1 0.0000  23.938817  2.224508  88.135299
106   1 0.0000  21.102846  7.136552   3.021395
107   1 0.0000  21.102846  7.136552  24.299871
108   1 0.0000  21.102846  7.136552  45.578347
109   1 0.0000  21.102846  7.136552  66.856823
110   1 0.0000  21.102846  7.136552  88.135299
111   1 0.0000  18.266875 12.048596   3.021395
112   1 0.0000  18.266875 12.048596  24.299871
113   1 0.0000  18.266875 12.048596  45.578347
114   1 0.0000  18.266875 12.048596  66.856823
115   1 0.0000  18.266875 12.048596  88.135299
116   1 0.0000  15.430904 16.960641   3.021395
117   1 0.0000  15.430904 16.960641  24.299871
118   1 0.0000  15.430904 16.960641  45.578347
119   1 0.0000  15.430904 16.960641  66.856823
120   1 0.0000  15.430904 16.960641  88.135299
121   1 0.0000  12.594932 21.872685   3.021395
122   1 0.0000  12.594932 21.872685  24.299871
123   1 0.0000  12.594932 21.872685  45.578347
124   1 0.0000  12.594932 21.872685  66.856823
125   1 0.0000  12.594932 21.872685  88.135299
126   1 0.0000   4.087030  2.687537  11.164242
127   1 0.0000   4.087030  2.687537  32.442718
128   1 0.0000   4.087030  2.687537  53.721194
129   1 0.0000   4.087030  2.687537  74.999670
130   1 0.0000   4.087030  2.687537  96.278146
131   1 0.0000   1.251059  7.599581  11.164242
132   1 0.0000   1.251059  7.599581  32.442718
133   1 0.0000   1.251059  7.599581  53.721194
134   1 0.0000   1.251059  7.599581  74.999670
135   1 0.0000   1.251059  7.599581  96.278146
136   1 0.0000  -1.584912 12.511625  11.164242
137   1 0.0000  -1.584912 12.511625  32.442718
138   1 0.0000  -1.584912 12.511625  53.721194
139   1 0.0000  -1.584912 12.511625  74.999670
140   1 0.0000  -1.584912 12.511625  96.278146
141   1 0.0000  -4.420883 17.423670  11.164242
142   1 0.0000  -4.420883 17.423670  32.442718
143   1 0.0000  -4.420883 17.423670  53.721194
144   1 0.0000  -4.420883 17.423670  74.999670
145   1 0.0000  -4.420883 17.423670  96.278146
146   1 0.0000  -7.256855 22.335714  11.164242
147   1 0.0000  -7.256855 22.335714  32.442718
148   1 0.0000  -7.256855 22.335714  53.721194
149   1 0.0000  -7.256855 22.335714  74.999670
150   1 0.0000  -7.256855 22.335714  96.278146
151   1 0.0000   9.758971  2.687537  11.164242
152   1 0.0000   9.758971  2.687537  32.442718
153   1 0.0000   9.758971  2.687537  53.721194
154   1 0.0000   9.758971  2.687537  74.999670
155   1 0.0000   9.758971  2.687537  96.278146
156   1 0.0000   6.923000  7.599581  11.164242
157   1 0.0000   6.923000  7.599581  32.442718
158   1 0.0000   6.923000  7.599581  53.721194
159   1 0.0000   6.923000  7.599581  74.999670
160   1 0.0000   6.923000  7.599581  96.278146
161   1 0.0000   4.087028 12.511625  11.164242
162   1 0.0000   4.087028 12.511625  32.442718
163   1 0.0000   4.087028 12.511625  53.721194
164   1 0.0000   4.087028 12.511625  74.999670
165   1 0.0000   4.087028 12.511625  96.278146
166   1 0.0000   1.251057 17.423670  11.164242
167   1 0.0000   1.251057 17.423670  32.442718
168   1 0.0000   1.251057 17.423670  53.721194
169   1 0.0000   1.251057 17.423670  74.999670
170   1 0.0000   1.251057 17.423670  96.278146
171   1 0.0000  -1.584914 22.335714  11.164242
172   1 0.0000  -1.584914 22.335714  32.442718
173   1 0.0000  -1.584914 22.335714  53.721194
174   1 0.0000  -1.584914 22.335714  74.999670
175   1 0.0000  -1.584914 22.335714  96.278146
176   1 0.0000  15.430911  2.687537  11.164242
177   1 0.0000  15.430911  2.687537  32.442718
178   1 0.0000  15.430911  2.687537  53.721194
179   1 0.0000  15.430911  2.687537  74.999670
180   1 0.0000  15.430911  2.687537  96.278146
181   1 0.0000  12.594940  7.599581  11.164242
182   1 0.0000  12.594940  7.599581  32.442718
183   1 0.0000  12.594940  7.599581  53.721194
184   1 0.0000  12.594940  7.599581  74.999670
185   1 0.0000  12.594940  7.599581  96.278146
186   1 0.0000   9.758969 12.511625  11.164242
187   1 0.0000   9.758969 12.511625  32.442718
188   1 0.0000   9.758969 12.511625  53.721194
189   1 0.0000   9.758969 12.511625  74.999670
190   1 0.0000   9.758969 12.511625  96.278146
191   1 0.0000   6.922998 17.423670  11.164242
192   1 0.0000   6.922998 17.423670  32.442718
193   1 0.0000   6.922998 17.423670  53.721194
194   1 0.0000   6.922998 17.423670  74.999670
195   1 0.0000   6.922998 17.423670  96.278146
196   1 0.0000   4.087027 22.335714  11.164242
197   1 0.0000   4.087027 22.335714  32.442718
198   1 0.0000   4.087027 22.335714  53.721194
199   1 0.0000   4.087027 22.335714  74.999670
200   1 0.0000   4.087027 22.335714  96.278146
201   1 0.0000  21.102852  2.687537  11.164242
202   1 0.0000  21.102852  2.687537  32.442718
203   1 0.0000  21.102852  2.687537  53.721194
204   1 0.0000  21.102852  2.687537  74.999670
205   1 0.0000  21.102852  2.687537  96.278146
206   1 0.0000  18.266881  7.599581  11.164242
207   1 0.0000  18.266881  7.599581  32.442718
208   1 0.0000  18.266881  7.599581  53.721194
209   1 0.0000  18.266881  7.599581  74.999670
210   1 0.0000  18.266881  7.599581  96.278146
211   1 0.0000  15.430910 12.511625  11.164242
212   1 0.0000  15.430910 12.511625  32.442718
213   1 0.0000  15.430910 12.511625  53.721194
214   1 0.0000  15.430910 12.511625  74.999670
215   1 0.0000  15.430910 12.511625  96.278146
216   1 0.0000  12.594939 17.423670  11.164242
217   1 0.0000  12.594939 17.423670  32.442718
218   1 0.0000  12.594939 17.423670  53.721194
219   1 0.0000  12.594939 17.423670  74.999670
220   1 0.0000  12.594939 17.423670  96.278146
221   1 0.0000   9.758968 22.335714  11.164242
222   1 0.0000   9.758968 22.335714  32.442718
223   1 0.0000   9.758968 22.335714  53.721194
224   1 0.0000   9.758968 22.335714  74.999670
225   1 0.0000   9.758968 22.335714  96.278146
226   1 0.0000  26.774793  2.687537  11.164242
227   1 0.0000  26.774793  2.687537  32.442718
228   1 0.0000  26.774793  2.687537  53.721194
229   1 0.0000  26.774793  2.687537  74.999670
230   1 0.0000  26.774793  2.687537  96.278146
231   1 0.0000  23.938822  7.599581  11.164242
232   1 0.0000  23.938822  7.599581  32.442718
233   1 0.0000  23.938822  7.599581  53.721194
234   1 0.0000  23.938822  7.599581  74.999670
235   1 0.0000  23.938822  7.599581  96.278146
236   1 0.0000  21.102851 12.511625  11.164242
237   1 0.0000  21.102851 12.511625  32.442718
238   1 0.0000  21.102851 12.511625  53.721194
239   1 0.0000  21.102851 12.511625  74.999670
240   1 0.0000  21.102851 12.511625  96.278146
241   1 0.0000  18.266880 17.423670  11.164242
242   1 0.0000  18.266880 17.423670  32.442718
243   1 0.0000  18.266880 17.423670  53.721194
244   1 0.0000  18.266880 17.423670  74.999670
245   1 0.0000  18.266880 17.423670  96.278146
246   1 0.0000  15.430908 22.335714  11.164242
247   1 0.0000  15.430908 22.335714  32.442718
248   1 0.0000  15.430908 22.335714  53.721194
249   1 0.0000  15.430908 22.335714  74.999670
250   1 0.0000  15.430908 22.335714  96.278146
251   1 0.0000   1.300953  2.195699  18.257081
252   1 0.0000   1.300953  2.195699  39.535557
253   1 0.0000   1.300953  2.195699  60.814033
254   1 0.0000   1.300953  2.195699  82.092509
255   1 0.0000   1.300953  2.195699 103.370985
256   1 0.0000  -1.535018  7.107743  18.257081
257   1 0.0000  -1.535018  7.107743  39.535557
258   1 0.0000  -1.535018  7.107743  60.814033
259   1 0.0000  -1.535018  7.107743  82.092509
260   1 0.0000  -1.535018  7.107743 103.370985
261   1 0.0000  -4.370989 12.019787  18.257081
262   1 0.0000  -4.370989 12.019787  39.535557
263   1 0.0000  -4.370989 12.019787  60.814033
264   1 0.0000  -4.370989 12.019787  82.092509
265   1 0.0000  -4.370989 12.019787 103.370985
266   1 0.0000  -7.206961 16.931832  18.257081
267   1 0.0000  -7.206961 16.931832  39.535557
268   1 0.0000  -7.206961 16.931832  60.814033
269   1 0.0000  -7.206961 16.931832  82.092509
270   1 0.0000  -7.206961 16.931832 103.370985
271   1 0.0000 -10.042932 21.843876  18.257081
272   1 0.0000 -10.042932 21.843876  39.535557
273   1 0.0000 -10.042932 21.843876  60.814033
274   1 0.0000 -10.042932 21.843876  82.092509
275   1 0.0000 -10.042932 21.843876 103.370985
276   1 0.0000   6.972894  2.195699  18.257081
277   1 0.0000   6.972894  2.195699  39.535557
278   1 0.0000   6.972894  2.195699  60.814033
279   1 0.0000   6.972894  2.195699  82.092509
280   1 0.0000   6.972894  2.195699 103.370985
281   1 0.0000   4.136922  7.107743  18.257081
282   1 0.0000   4.136922  7.107743  39.535557
283   1 0.0000   4.136922  7.107743  60.814033
284   1 0.0000   4.136922  7.107743  82.092509
285   1 0.0000   4.136922  7.107743 103.370985
286   1 0.0000   1.300951 12.019787  18.257081
287   1 0.0000   1.300951 12.019787  39.535557
288   1 0.0000   1.300951 12.019787  60.814033
289   1 0.0000   1.300951 12.019787  82.092509
290   1 0.0000   1.300951 12.019787 103.370985
291   1 0.0000  -1.535020 16.931832  18.257081
292   1 0.0000  -1.535020 16.931832  39.535557
293   1 0.0000  -1.535020 16.931832  60.814033
294   1 0.0000  -1.535020 16.931832  82.092509
295   1 0.0000  -1.535020 16.931832 103.370985
296   1 0.0000  -4.370991 21.843876  18.257081
297   1 0.0000  -4.370991 21.843876  39.535557
298   1 0.0000  -4.370991 21.843876  60.814033
299   1 0.0000  -4.370991 21.843876  82.092509
300   1 0.0000  -4.370991 21.843876 103.370985
301   1 0.0000  12.644834  2.195699  18.257081
302   1 0.0000  12.644834  2.195699  39.535557
303   1 0.0000  12.644834  2.195699  60.814033
304   1 0.0000  12.644834  2.195699  82.092509
305   1 0.0000  12.644834  2.195699 103.370985
306   1 0.0000   9.808863  7.107743  18.257081
307   1 0.0000   9.808863  7.107743  39.535557
308   1 0.0000   9.808863  7.107743  60.814033
309   1 0.0000   9.808863  7.107743  82.092509
310   1 0.0000   9.808863  7.107743 103.370985
311   1 0.0000   6.972892 12.019787  18.257081
312   1 0.0000   6.972892 12.019787  39.535557
313   1 0.0000   6.972892 12.019787  60.814033
314   1 0.0000   6.972892 12.019787  82.092509
315   1 0.0000   6.972892 12.019787 103.370985
316   1 0.0000   4.136921 16.931832  18.257081
317   1 0.0000   4.136921 16.931832  39.535557
318   1 0.0000   4.136921 16.931832  60.814033
319   1 0.0000   4.136921 16.931832  82.092509
320   1 0.0000   4.136921 16.931832 103.370985
321   1 0.0000   1.300950 21.843876  18.257081
322   1 0.0000   1.300950 21.843876  39.535557
323   1 0.0000   1.300950 21.843876  60.814033
324   1 0.0000   1.300950 21.843876  82.092509
325   1 0.0000   1.300950 21.843876 103.370985
326   1 0.0000  18.316775  2.195699  18.257081
327   1 0.0000  18.316775  2.195699  39.535557
328   1 0.0000  18.316775  2.195699  60.814033
329   1 0.0000  18.316775  2.195699  82.092509
330   1 0.0000  18.316775  2.195699 103.370985
331   1 0.0000  15.480804  7.107743  18.257081
332   1 0.0000  15.480804  7.107743  39.535557
333   1 0.0000  15.480804  7.107743  60.814033
334   1 0.0000  15.480804  7.107743  82.092509
335   1 0.0000  15.480804  7.107743 103.370985
336   1 0.0000  12.644833 12.019787  18.257081
337   1 0.0000  12.644833 12.019787  39.535557
338   1 0.0000  12.644833 12.019787  60.814033
339   1 0.0000  12.644833 12.019787  82.092509
340   1 0.0000  12.644833 12.019787 103.370985
341   1 0.0000   9.808862 16.931832  18.257081
342   1 0.0000   9.808862 16.931832  39.535557
343   1 0.0000   9.808862 16.931832  60.814033
344   1 0.0000   9.808862 16.931832  82.092509
345   1 0.0000   9.808862 16.931832 103.370985
346   1 0.0000   6.972891 21.843876  18.257081
347   1 0.0000   6.972891 21.843876  39.535557
348   1 0.0000   6.972891 21.843876  60.814033
349   1 0.0000   6.972891 21.843876  82.092509
350   1 0.0000   6.972891 21.843876 103.370985
351   1 0.0000  23.988716  2.195699  18.257081
352   1 0.0000  23.988716  2.195699  39.535557
353   1 0.0000  23.988716  2.195699  60.814033
354   1 0.0000  23.988716  2.195699  82.092509
355   1 0.0000  23.988716  2.195699 103.370985
356   1 0.0000  21.152745  7.107743  18.257081
357   1 0.0000  21.152745  7.107743  39.535557
358   1 0.0000  21.152745  7.107743  60.814033
359   1 0.0000  21.152745  7.107743  82.092509
360   1 0.0000  21.152745  7.107743 103.370985
361   1 0.0000  18.316774 12.019787  18.257081
362   1 0.0000  18.316774 12.019787  39.535557
363   1 0.0000  18.316774 12.019787  60.814033
364   1 0.0000  18.316774 12.019787  82.092509
365   1 0.0000  18.316774 12.019787 103.370985
366   1 0.0000  15.480802 16.931832  18.257081
367   1 0.0000  15.480802 16.931832  39.535557
368   1 0.0000  15.480802 16.931832  60.814033
369   1 0.0000  15.480802 16.931832  82.092509
370   1 0.0000  15.480802 16.931832 103.370985
371   1 0.0000  12.644831 21.843876  18.257081
372   1 0.0000  12.644831 21.843876  39.535557
373   1 0.0000  12.644831 21.843876  60.814033
374   1 0.0000  12.644831 21.843876  82.092509
375   1 0.0000  12.644831 21.843876 103.370985
376   1 0.0000   0.283959  4.883240  10.114234
377   1 0.0000   0.283959  4.883240  31.392710
378   1 0.0000   0.283959  4.883240  52.671186
379   1 0.0000   0.283959  4.883240  73.949662
380   1 0.0000   0.283959  4.883240  95.228138
381   1 0.0000  -2.552012  9.795284  10.114234
382   1 0.0000  -2.552012  9.795284  31.392710
383   1 0.0000  -2.552012  9.795284  52.671186
384   1 0.0000  -2.552012  9.795284  73.949662
385   1 0.0000  -2.552012  9.795284  95.228138
386   1 0.0000  -5.387983 14.707329  10.114234
387   1 0.0000  -5.387983 14.707329  31.392710
388   1 0.0000  -5.387983 14.707329  52.671186
389   1 0.0000  -5.387983 14.707329  73.949662
390   1 0.0000  -5.387983 14.707329  95.228138
391   1 0.0000  -8.223954 19.619373  10.114234
392   1 0.0000  -8.223954 19.619373  31.392710
393   1 0.0000  -8.223954 19.619373  52.671186
394   1 0.0000  -8.223954 19.619373  73.949662
395   1 0.0000  -8.223954 19.619373  95.228138
396   1 0.0000 -11.059925 24.531418  10.114234
397   1 0.0000 -11.059925 24.531418  31.392710
398   1 0.0000 -11.059925 24.531418  52.671186
399   1 0.0000 -11.059925 24.531418  73.949662
400   1 0.0000 -11.059925 24.531418  95.228138
401   1 0.0000   5.955900  4.883240  10.114234
402   1 0.0000   5.955900  4.883240  31.392710
403   1 0.0000   5.955900  4.883240  52.671186
404   1 0.0000   5.955900  4.883240  73.949662
405   1 0.0000   5.955900  4.883240  95.228138
406   1 0.0000   3.119929  9.795284  10.114234
407   1 0.0000   3.119929  9.795284  31.392710
408   1 0.0000   3.119929  9.795284  52.671186
409   1 0.0000   3.119929  9.795284  73.949662
410   1 0.0000   3.119929  9.795284  95.228138
411   1 0.0000   0.283958 14.707329  10.114234
412   1 0.0000   0.283958 14.707329  31.392710
413   1 0.0000   0.283958 14.707329  52.671186
414   1 0.0000   0.283958 14.707329  73.949662
415   1 0.0000   0.283958 14.707329  95.228138
416   1 0.0000  -2.552013 19.619373  10.114234
417   1 0.0000  -2.552013 19.619373  31.392710
418   1 0.0000  -2.552013 19.619373  52.671186
419   1 0.0000  -2.552013 19.619373  73.949662
420   1 0.0000  -2.552013 19.619373  95.228138
421   1 0.0000  -5.387984 24.531418  10.114234
422   1 0.0000  -5.387984 24.531418  31.392710
423   1 0.0000  -5.387984 24.531418  52.671186
424   1 0.0000  -5.387984 24.531418  73.949662
425   1 0.0000  -5.387984 24.531418  95.228138
426   1 0.0000  11.627841  4.883240  10.114234
427   1 0.0000  11.627841  4.883240  31.392710
428   1 0.0000  11.627841  4.883240  52.671186
429   1 0.0000  11.627841  4.883240  73.949662
430   1 0.0000  11.627841  4.883240  95.228138
431   1 0.0000   8.791870  9.795284  10.114234
432   1 0.0000   8.791870  9.795284  31.392710
433   1 0.0000   8.791870  9.795284  52.671186
434   1 0.0000   8.791870  9.795284  73.949662
435   1 0.0000   8.791870  9.795284  95.228138
436   1 0.0000   5.955899 14.707329  10.114234
437   1 0.0000   5.955899 14.707329  31.392710
438   1 0.0000   5.955899 14.707329  52.671186
439   1 0.0000   5.955899 14.707329  73.949662
440   1 0.0000   5.955899 14.707329  95.228138
441   1 0.0000   3.119927 19.619373  10.114234
442   1 0.0000   3.119927 19.619373  31.392710
443   1 0.0000   3.119927 19.619373  52.671186
444   1 0.0000   3.119927 19.619373  73.949662
445   1 0.0000   3.119927 19.619373  95.228138
446   1 0.0000   0.283956 24.531418  10.114234
447   1 0.0000   0.283956 24.531418  31.392710
448   1 0.0000   0.283956 24.531418  52.671186
449   1 0.0000   0.283956 24.531418  73.949662
450   1 0.0000   0.283956 24.531418  95.228138
451   1 0.0000  17.299782  4.883240  10.114234
452   1 0.0000  17.299782  4.883240  31.392710
453   1 0.0000  17.299782  4.883240  52.671186
454   1 0.0000  17.299782  4.883240  73.949662
455   1 0.0000  17.299782  4.883240  95.228138
456   1 0.0000  14.463810  9.795284  10.114234
457   1 0.0000  14.463810  9.795284  31.392710
458   1 0.0000  14.463810  9.795284  52.671186
459   1 0.0000  14.463810  9.795284  73.949662
460   1 0.0000  14.463810  9.795284  95.228138
461   1 0.0000  11.627839 14.707329  10.114234
462   1 0.0000  11.627839 14.707329  31.392710
463   1 0.0000  11.627839 14.707329  52.671186
464   1 0.0000  11.627839 14.707329  73.949662
465   1 0.0000  11.627839 14.707329  95.228138
466   1 0.0000   8.791868 19.619373  10.114234
467   1 0.0000   8.791868 19.619373  31.392710
468   1 0.0000   8.791868 19.619373  52.671186
469   1 0.0000   8.791868 19.619373  73.949662
470   1 0.0000   8.791868 19.619373  95.228138
471   1 0.0000   5.955897 24.531418  10.114234
472   1 0.0000   5.955897 24.531418  31.392710
473   1 0.0000   5.955897 24.531418  52.671186
474   1 0.0000   5.955897 24.531418  73.949662
475   1 0.0000   5.955897 24.531418  95.228138
476   1 0.0000  22.971722  4.883240  10.114234
477   1 0.0000  22.971722  4.883240  31.392710
478   1 0.0000  22.971722  4.883240  52.671186
479   1 0.0000  22.971722  4.883240  73.949662
480   1 0.0000  22.971722  4.883240  95.228138
481   1 0.0000  20.135751  9.795284  10.114234
482   1 0.0000  20.135751  9.795284  31.392710
483   1 0.0000  20.135751  9.795284  52.671186
484   1 0.0000  20.135751  9.795284  73.949662
485   1 0.0000  20.135751  9.795284  95.228138
486   1 0.0000  17.299780 14.707329  10.114234
487   1 0.0000  17.299780 14.707329  31.392710
488   1 0.0000  17.299780 14.707329  52.671186
489   1 0.0000  17.299780 14.707329  73.949662
490   1 0.0000  17.299780 14.707329  95.228138
491   1 0.0000  14.463809 19.619373  10.114234
492   1 0.0000  14.463809 19.619373  31.392710
493   1 0.0000  14.463809 19.619373  52.671186
494   1 0.0000  14.463809 19.619373  73.949662
495   1 0.0000  14.463809 19.619373  95.228138
496   1 0.0000  11.627838 24.531418  10.114234
497   1 0.0000  11.627838 24.531418  31.392710
498   1 0.0000  11.627838 24.531418  52.671186
499   1 0.0000  11.627838 24.531418  73.949662
500   1 0.0000  11.627838 24.531418  95.228138
501   1 0.0000   3.119936  0.028804   4.071424
502   1 0.0000   3.119936  0.028804  25.349900
503   1 0.0000   3.119936  0.028804  46.628376
504   1 0.0000   3.119936  0.028804  67.906852
505   1 0.0000   3.119936  0.028804  89.185328
506   1 0.0000   0.283965  4.940849   4.071424
507   1 0.0000   0.283965  4.940849  25.349900
508   1 0.0000   0.283965  4.940849  46.628376
509   1 0.0000   0.283965  4.940849  67.906852
510   1 0.0000   0.283965  4.940849  89.185328
511   1 0.0000  -2.552006  9.852893   4.071424
512   1 0.0000  -2.552006  9.852893  25.349900
513   1 0.0000  -2.552006  9.852893  46.628376
514   1 0.0000  -2.552006  9.852893  67.906852
515   1 0.0000  -2.552006  9.852893  89.185328
516   1 0.0000  -5.387977 14.764937   4.071424
517   1 0.0000  -5.387977 14.764937  25.349900
518   1 0.0000  -5.387977 14.764937  46.628376
519   1 0.0000  -5.387977 14.764937  67.906852
520   1 0.0000  -5.387977 14.764937  89.185328
521   1 0.0000  -8.223948 19.676982   4.071424
522   1 0.0000  -8.223948 19.676982  25.349900
523   1 0.0000  -8.223948 19.676982  46.628376
524   1 0.0000  -8.223948 19.676982  67.906852
525   1 0.0000  -8.223948 19.676982  89.185328
526   1 0.0000   8.791877  0.028804   4.071424
527   1 0.0000   8.791877  0.028804  25.349900
528   1 0.0000   8.791877  0.028804  46.628376
529   1 0.0000   8.791877  0.028804  67.906852
530   1 0.0000   8.791877  0.028804  89.185328
531   1 0.0000   5.955906  4.940849   4.071424
532   1 0.0000   5.955906  4.940849  25.349900
533   1 0.0000   5.955906  4.940849  46.628376
534   1 0.0000   5.955906  4.940849  67.906852
535   1 0.0000   5.955906  4.940849  89.185328
536   1 0.0000   3.119935  9.852893   4.071424
537   1 0.0000   3.119935  9.852893  25.349900
538   1 0.0000   3.119935  9.852893  46.628376
539   1 0.0000   3.119935  9.852893  67.906852
540   1 0.0000   3.119935  9.852893  89.185328
541   1 0.0000   0.283963 14.764937   4.071424
542   1 0.0000   0.283963 14.764937  25.349900
543   1 0.0000   0.283963 14.764937  46.628376
544   1 0.0000   0.283963 14.764937  67.906852
545   1 0.0000   0.283963 14.764937  89.185328
546   1 0.0000  -2.552008 19.676982   4.071424
547   1 0.0000  -2.552008 19.676982  25.349900
548   1 0.0000  -2.552008 19.676982  46.628376
549   1 0.0000  -2.552008 19.676982  67.906852
550   1 0.0000  -2.552008 19.676982  89.185328
551   1 0.0000  14.463818  0.028804   4.071424
552   1 0.0000  14.463818  0.028804  25.349900
553   1 0.0000  14.463818  0.028804  46.628376
554   1 0.0000  14.463818  0.028804  67.906852
555   1 0.0000  14.463818  0.028804  89.185328
556   1 0.0000  11.627846  4.940849   4.071424
557   1 0.0000  11.627846  4.940849  25.349900
558   1 0.0000  11.627846  4.940849  46.628376
559   1 0.0000  11.627846  4.940849  67.906852
560   1 0.0000  11.627846  4.940849  89.185328
561   1 0.0000   8.791875  9.852893   4.071424
562   1 0.0000   8.791875  9.852893  25.349900
563   1 0.0000   8.791875  9.852893  46.628376
564   1 0.0000   8.791875  9.852893  67.906852
565   1 0.0000   8.791875  9.852893  89.185328
566   1 0.0000   5.955904 14.764937   4.071424
567   1 0.0000   5.955904 14.764937  25.349900
568   1 0.0000   5.955904 14.764937  46.628376
569   1 0.0000   5.955904 14.764937  67.906852
570   1 0.0000   5.955904 14.764937  89.185328
571   1 0.0000   3.119933 19.676982   4.071424
572   1 0.0000   3.119933 19.676982  25.349900
573   1 0.0000   3.119933 19.676982  46.628376
574   1 0.0000   3.119933 19.676982  67.906852
575   1 0.0000   3.119933 19.676982  89.185328
576   1 0.0000  20.135758  0.028804   4.071424
577   1 0.0000  20.135758  0.028804  25.349900
578   1 0.0000  20.135758  0.028804  46.628376
579   1 0.0000  20.135758  0.028804  67.906852
580   1 0.0000  20.135758  0.028804  89.185328
581   1 0.0000  17.299787  4.940849   4.071424
582   1 0.0000  17.299787  4.940849  25.349900
583   1 0.0000  17.299787  4.940849  46.628376
584   1 0.0000  17.299787  4.940849  67.906852
585   1 0.0000  17.299787  4.940849  89.185328
586   1 0.0000  14.463816  9.852893   4.071424
587   1 0.0000  14.463816  9.852893  25.349900
588   1 0.0000  14.463816  9.852893  46.628376
589   1 0.0000  14.463816  9.852893  67.906852
590   1 0.0000  14.463816  9.852893  89.185328
591   1 0.0000  11.627845 14.764937   4.071424
592   1 0.0000  11.627845 14.764937  25.349900
593   1 0.0000  11.627845 14.764937  46.628376
594   1 0.0000  11.627845 14.764937  67.906852
595   1 0.0000  11.627845 14.764937  89.185328
596   1 0.0000   8.791874 19.676982   4.071424
597   1 0.0000   8.791874 19.676982  25.349900
598   1 0.0000   8.791874 19.676982  46.628376
599   1 0.0000   8.791874 19.676982  67.906852
600   1 0.0000   8.791874 19.676982  89.185328
601   1 0.0000  25.807699  0.028804   4.071424
602   1 0.0000  25.807699  0.028804  25.349900
603   1 0.0000  25.807699  0.028804  46.628376
604   1 0.0000  25.807699  0.028804  67.906852
605   1 0.0000  25.807699  0.028804  89.185328
606   1 0.0000  22.971728  4.940849   4.071424
607   1 0.0000  22.971728  4.940849  25.349900
608   1 0.0000  22.971728  4.940849  46.628376
609   1 0.0000  22.971728  4.940849  67.906852
610   1 0.0000  22.971728  4.940849  89.185328
611   1 0.0000  20.135757  9.852893   4.071424
612   1 0.0000  20.135757  9.852893  25.349900
613   1 0.0000  20.135757  9.852893  46.628376
614   1 0.0000  20.135757  9.852893  67.906852
615   1 0.0000  20.135757  9.852893  89.185328
616   1 0.0000  17.299786 14.764937   4.071424
617   1 0.0000  17.299786 14.764937  25.349900
618   1 0.0000  17.299786 14.764937  46.628376
619   1 0.0000  17.299786 14.764937  67.906852
620   1 0.0000  17.299786 14.764937  89.185328
621   1 0.0000  14.463815 19.676982   4.071424
622   1 0.0000  14.463815 19.676982  25.349900
623   1 0.0000  14.463815 19.676982  46.628376
624   1 0.0000  14.463815 19.676982  67.906852
625   1 0.0000  14.463815 19.676982  89.185328
626   1 0.0000  -1.535023  2.716346  17.207052
627   1 0.0000  -1.535023  2.716346  38.485528
628   1 0.0000  -1.535023  2.716346  59.764004
629   1 0.0000  -1.535023  2.716346  81.042480
630   1 0.0000  -1.535023  2.716346 102.320956
631   1 0.0000  -4.370994  7.628390  17.207052
632   1 0.0000  -4.370994  7.628390  38.485528