LAMMPS (29 Aug 2024)
OMP_NUM_THREADS environment is not set. Defaulting to 1 thread. (src/comm.cpp:98)
  using 1 OpenMP thread(s) per MPI task
# LAMMPS Quenching Script for Li2Ta2OF23 - 5 K/ps
# VERY SLOW quench - mostly crystalline
units metal
atom_style charge
boundary p p p
processors * * *  # Use all available processors

# Read melted/liquid structure
read_data Li2Ta2OF23_melted_liquid.data
Reading data file ...
  triclinic box = (-365.0774 -316.16627 -1369.6001) to (393.4371 340.7265 1475.9925) with tilt (-379.25736 0 0)
WARNING: Triclinic box skew is large. LAMMPS will run inefficiently. (src/domain.cpp:221)
  1 by 1 by 6 MPI processor grid
  reading atoms ...
  4875 atoms
  reading velocities ...
  4875 velocities
  read_data CPU = 0.029 seconds

# Define potential
# Lennard-Jones + Coulomb potential for ceramics
# Assigns approximate charges based on oxidation states

# Set charges for each atom type
set type 1 charge -1.0
Setting atom values ...
  750 settings made for charge
set type 2 charge -2.0
Setting atom values ...
  750 settings made for charge
set type 3 charge 0.0
Setting atom values ...
  1125 settings made for charge
set type 4 charge 1.0
Setting atom values ...
  2250 settings made for charge

# Use hybrid potential: LJ for short-range, Coulomb for long-range
pair_style hybrid/overlay lj/cut 10.0 coul/cut 12.0
pair_coeff * * lj/cut 0.010 3.0  # LJ parameters (epsilon=0.01 eV, sigma=3.0 Angstrom)
pair_coeff * * coul/cut  # Coulombic interactions

# Note: For better accuracy with long-range electrostatics, use:
# pair_style hybrid/overlay lj/cut 10.0 coul/long 12.0
# kspace_style pppm 1e-4
# But this requires more setup and is slower

# Neighbor list
neighbor 2.0 bin
neigh_modify every 1 delay 0 check yes

# STAGE 1: QUENCH from 5000K to 300K at 5 K/ps
# This will take 940.0 ps
fix 1 all npt temp 5000 300 $(100.0*dt) iso 1.0 1.0 $(1000.0*dt)
fix 1 all npt temp 5000 300 0.10000000000000000555 iso 1.0 1.0 $(1000.0*dt)
fix 1 all npt temp 5000 300 0.10000000000000000555 iso 1.0 1.0 1
timestep 0.001

# Output
thermo 1000
thermo_style custom step time temp press vol etotal ke pe density
dump 1 all custom 5000 Li2Ta2OF23_quench_5Kps_trajectory.dump id type x y z vx vy vz

print "Starting QUENCH of Li2Ta2OF23 from liquid at 5000K to 300K"
Starting QUENCH of Li2Ta2OF23 from liquid at 5000K to 300K
print "Cooling rate: 5 K/ps - expecting crystalline"
Cooling rate: 5 K/ps - expecting crystalline
run 940000

CITE-CITE-CITE-CITE-CITE-CITE-CITE-CITE-CITE-CITE-CITE-CITE-CITE

Your simulation uses code contributions which should be cited:

- Type Label Framework: https://doi.org/10.1021/acs.jpcb.3c08419

@Article{Gissinger24,
 author = {Jacob R. Gissinger, Ilia Nikiforov, Yaser Afshar, Brendon Waters, Moon-ki Choi, Daniel S. Karls, Alexander Stukowski, Wonpil Im, Hendrik Heinz, Axel Kohlmeyer, and Ellad B. Tadmor},
 title = {Type Label Framework for Bonded Force Fields in LAMMPS},
 journal = {J. Phys. Chem. B},
 year =    2024,
 volume =  128,
 number =  13,
 pages =   {3282–-3297}
}

CITE-CITE-CITE-CITE-CITE-CITE-CITE-CITE-CITE-CITE-CITE-CITE-CITE

Generated 0 of 6 mixed pair_coeff terms from geometric mixing rule
Neighbor list info ...
  update: every = 1 steps, delay = 0 steps, check = yes
  max neighbors/atom: 2000, page size: 100000
  master list distance cutoff = 14
  ghost atom cutoff = 14
  binsize = 7, bins = 163 94 407
  2 neighbor lists, perpetual/occasional/extra = 2 0 0
  (1) pair lj/cut, perpetual, trim from (2)
      attributes: half, newton on, cut 12
      pair build: trim
      stencil: none
      bin: none
  (2) pair coul/cut, perpetual
      attributes: half, newton on
      pair build: half/bin/atomonly/newton/tri
      stencil: half/bin/3d/tri
      bin: standard
Per MPI rank memory allocation (min/avg/max) = 8.64 | 8.664 | 8.707 Mbytes
   Step          Time           Temp          Press          Volume         TotEng         KinEng         PotEng        Density    
         0   0              5041.6516      1.1291042      1.4178526e+09 -13365.643      3176.3108     -16541.954      0.00023617987
      1000   1              4996.8334      1.0872942      1.3935482e+09 -13365.82       3148.0748     -16513.895      0.000240299  
      2000   2              4940.942       0.99957864     1.3475475e+09 -13415.824      3112.8624     -16528.687      0.000248502  
      3000   3              5013.8121      1.165984       1.363066e+09  -13371.65       3158.7716     -16530.421      0.0002456728 
      4000   4              4937.1451      0.90946508     1.4237977e+09 -13396.91       3110.4703     -16507.38       0.0002351937 
      5000   5              4953.6587      0.95334139     1.4190736e+09 -13376.457      3120.8741     -16497.332      0.00023597666
      6000   6              5018.3911      1.1877553      1.385489e+09  -13362.666      3161.6564     -16524.322      0.00024169679
      7000   7              4970.5721      0.9069652      1.3755721e+09 -13353.596      3131.5297     -16485.126      0.00024343926
      8000   8              4882.7264      1.0221405      1.4038559e+09 -13387.585      3076.1857     -16463.771      0.00023853463
      9000   9              4900.4213      0.86200935     1.4128146e+09 -13402.189      3087.3338     -16489.523      0.00023702208
     10000   10             4962.3529      1.1915237      1.4042067e+09 -13407.246      3126.3515     -16533.598      0.00023847504
     11000   11             5023.3344      1.238104       1.3889884e+09 -13324.978      3164.7707     -16489.749      0.00024108787
     12000   12             4950.1741      1.1669906      1.3747027e+09 -13361.592      3118.6787     -16480.271      0.00024359321
     13000   13             4968.5339      0.9155557      1.4094168e+09 -13378.925      3130.2456     -16509.171      0.00023759349
     14000   14             4881.4041      0.98801727     1.4518523e+09 -13397.066      3075.3527     -16472.419      0.00023064898
     15000   15             4964.1173      0.93158073     1.4311911e+09 -13288.019      3127.4631     -16415.482      0.0002339787 
     16000   16             4900.1932      1.0276551      1.4047945e+09 -13335.227      3087.19       -16422.417      0.00023837526
     17000   17             4894.9516      1.0212798      1.4020986e+09 -13345.327      3083.8878     -16429.215      0.00023883359
     18000   18             4962.6601      0.92414387     1.4029223e+09 -13306.056      3126.5451     -16432.601      0.00023869337
     19000   19             4920.4894      1.0032326      1.4179629e+09 -13312.266      3099.9769     -16412.243      0.00023616151
     20000   20             4915.0141      0.98050447     1.4623103e+09 -13321.31       3096.5275     -16417.837      0.00022899944
     21000   21             4981.0213      0.83089755     1.4303945e+09 -13310.456      3138.1129     -16448.569      0.00023410902
     22000   22             4946.5697      1.235665       1.3856504e+09 -13322.269      3116.4079     -16438.677      0.00024166864
     23000   23             4890.7013      0.89047548     1.3869999e+09 -13372.001      3081.21       -16453.211      0.0002414335 
     24000   24             4848.2639      1.2420884      1.4054227e+09 -13397.737      3054.4739     -16452.211      0.0002382687 
     25000   25             4918.9787      1.0516375      1.4245686e+09 -13331.963      3099.0252     -16430.988      0.00023506643
     26000   26             4899.4288      0.87804621     1.4421929e+09 -13286.468      3086.7085     -16373.176      0.00023219381
     27000   27             4972.6437      0.94259494     1.4387726e+09 -13290.093      3132.8349     -16422.927      0.00023274577
     28000   28             4828.3825      1.001479       1.3873133e+09 -13364.896      3041.9483     -16406.845      0.00024137897
     29000   29             4935.7967      0.95295735     1.3757816e+09 -13332.089      3109.6208     -16441.709      0.00024340219
     30000   30             4775.1134      0.86904977     1.4207355e+09 -13443.175      3008.388      -16451.563      0.00023570064
     31000   31             4759.3349      0.78881844     1.4354123e+09 -13402.309      2998.4473     -16400.756      0.00023329063
     32000   32             4850.053       0.93651211     1.4304649e+09 -13358.227      3055.601      -16413.828      0.0002340975 
     33000   33             4885.652       0.91774389     1.4180606e+09 -13366.179      3078.0289     -16444.207      0.00023614523
     34000   34             4888.191       0.94291992     1.3933919e+09 -13340.309      3079.6285     -16419.938      0.00024032596
     35000   35             4781.761       0.89339148     1.375052e+09  -13416.105      3012.5761     -16428.681      0.00024353133
     36000   36             4790.5473      1.0202871      1.4250176e+09 -13384.015      3018.1116     -16402.127      0.00023499235
     37000   37             4844.5563      0.97169269     1.4581055e+09 -13381.38       3052.1381     -16433.519      0.00022965982
     38000   38             4887.8343      1.0415196      1.4460289e+09 -13318.653      3079.4038     -16398.057      0.00023157784
     39000   39             4709.4409      0.91823186     1.4150911e+09 -13452.557      2967.0135     -16419.57       0.00023664077
     40000   40             4763.812       0.91834968     1.3884412e+09 -13443.65       3001.268      -16444.918      0.00024118289
     41000   41             4792.2803      1.0154641      1.416304e+09  -13356.873      3019.2035     -16376.077      0.00023643812
     42000   42             4806.3481      0.97110941     1.4705295e+09 -13339.22       3028.0664     -16367.286      0.00022771951
     43000   43             4837.135       0.97910806     1.4554338e+09 -13328.389      3047.4625     -16375.852      0.00023008141
     44000   44             4843.8826      1.0075844      1.4156951e+09 -13363.231      3051.7136     -16414.945      0.00023653982
     45000   45             4824.4767      1.0407495      1.4070692e+09 -13404.636      3039.4876     -16444.123      0.00023798989
     46000   46             4763.1729      0.94479887     1.4156322e+09 -13417.055      3000.8653     -16417.921      0.00023655031
     47000   47             4700.4235      0.96196544     1.4234097e+09 -13444.292      2961.3324     -16405.624      0.0002352578 
     48000   48             4770.1293      1.1337153      1.4306317e+09 -13434.207      3005.248      -16439.455      0.00023407019
     49000   49             4770.421       1.1035468      1.4431614e+09 -13402.638      3005.4318     -16408.069      0.00023203798
     50000   50             4792.7511      0.90354251     1.4498178e+09 -13396.887      3019.5        -16416.387      0.00023097265
     51000   51             4694.3808      1.1293057      1.4156667e+09 -13447.786      2957.5254     -16405.312      0.00023654455
     52000   52             4712.314       1.0463027      1.3707939e+09 -13446.357      2968.8236     -16415.181      0.00024428782
     53000   53             4718.5258      1.0553515      1.3949356e+09 -13460.475      2972.737      -16433.212      0.00024006   
     54000   54             4774.0762      1.0563188      1.438962e+09  -13393.146      3007.7346     -16400.88       0.00023271514
     55000   55             4708.3246      0.94210303     1.4422482e+09 -13467.712      2966.3101     -16434.022      0.0002321849 
     56000   56             4698.2703      1.1277141      1.4293778e+09 -13497.133      2959.9758     -16457.109      0.00023427553
     57000   57             4641.5097      0.96363094     1.3931196e+09 -13530.766      2924.2159     -16454.982      0.00024037295
     58000   58             4649.3982      0.98847132     1.3474879e+09 -13531.038      2929.1857     -16460.224      0.000248513  
     59000   59             4691.1692      1.0243191      1.4142209e+09 -13495.452      2955.5021     -16450.954      0.00023678639
     60000   60             4687.6127      1.0217465      1.4543663e+09 -13451.741      2953.2614     -16405.003      0.00023025029
     61000   61             4677.1495      1.0487974      1.4424383e+09 -13490.749      2946.6694     -16437.419      0.0002321543 
     62000   62             4661.7969      1.0281721      1.4006563e+09 -13458.705      2936.997      -16395.702      0.00023907953
     63000   63             4747.3749      1.0773037      1.3916233e+09 -13452.781      2990.9124     -16443.693      0.00024063139
     64000   64             4687.8976      1.0378427      1.4455566e+09 -13427.713      2953.4409     -16381.154      0.00023165351
     65000   65             4752.4315      1.1856446      1.4608121e+09 -13424.05       2994.0981     -16418.148      0.0002292343 
     66000   66             4666.3518      0.95687574     1.4344434e+09 -13462.957      2939.8667     -16402.824      0.00023344822
     67000   67             4720.5539      1.0009491      1.4221151e+09 -13409.229      2974.0148     -16383.243      0.00023547197
     68000   68             4617.2388      1.0523008      1.4298714e+09 -13474.18       2908.9248     -16383.104      0.00023419467
     69000   69             4691.2035      1.0809396      1.4358776e+09 -13486.402      2955.5237     -16441.925      0.00023321504
     70000   70             4707.2919      1.1484729      1.433987e+09  -13401.7        2965.6595     -16367.36       0.00023352251
     71000   71             4638.2308      1.1267172      1.4326016e+09 -13470.533      2922.1501     -16392.683      0.00023374834
     72000   72             4541.4333      0.85753197     1.4361159e+09 -13549.718      2861.1663     -16410.884      0.00023317634
     73000   73             4543.3698      0.86761718     1.4425172e+09 -13535.678      2862.3863     -16398.065      0.0002321416 
     74000   74             4589.1562      1.1835918      1.4197432e+09 -13514.836      2891.2324     -16406.068      0.00023586537
     75000   75             4533.2042      1.1201962      1.3943641e+09 -13555.39       2855.9819     -16411.372      0.0002401584 
     76000   76             4542.9465      0.97093398     1.4166118e+09 -13585.844      2862.1196     -16447.963      0.00023638674
     77000   77             4724.6357      1.1390838      1.4615934e+09 -13462.786      2976.5864     -16439.372      0.00022911177
     78000   78             4679.4427      0.97694064     1.4477506e+09 -13437.414      2948.1142     -16385.528      0.00023130245
     79000   79             4572.7266      0.96653122     1.4059091e+09 -13530.904      2880.8816     -16411.785      0.00023818628
     80000   80             4582.1353      0.94768984     1.3965658e+09 -13543.978      2886.8092     -16430.787      0.00023977979
     81000   81             4570.29        0.9574715      1.4698017e+09 -13504.819      2879.3464     -16384.166      0.00022783227
     82000   82             4637.2453      0.97927681     1.4948219e+09 -13438.453      2921.5292     -16359.982      0.00022401883
     83000   83             4629.2904      1.1207763      1.4432399e+09 -13475.583      2916.5175     -16392.1        0.00023202536
     84000   84             4618.6994      1.1391994      1.4166729e+09 -13512.278      2909.845      -16422.124      0.00023637655
     85000   85             4610.1759      1.0677951      1.4147356e+09 -13541.371      2904.4751     -16445.846      0.00023670024
     86000   86             4509.7156      1.0026355      1.4457034e+09 -13559.305      2841.1837     -16400.489      0.00023162998
     87000   87             4452.6359      0.99492445     1.5013558e+09 -13595.36       2805.2227     -16400.582      0.0002230439 
     88000   88             4569.7733      0.8362116      1.4641167e+09 -13543.214      2879.0209     -16422.235      0.00022871691
     89000   89             4648.8344      1.0119193      1.4093116e+09 -13499.172      2928.8305     -16428.003      0.00023761122
     90000   90             4535.4097      1.1103073      1.4148467e+09 -13572.524      2857.3714     -16429.895      0.00023668164
     91000   91             4549.9187      0.87797273     1.4431514e+09 -13549.635      2866.5122     -16416.147      0.00023203958
     92000   92             4505.6901      1.0213927      1.4742179e+09 -13618.133      2838.6476     -16456.781      0.00022714977
     93000   93             4585.5899      1.1149196      1.4209006e+09 -13549.353      2888.9856     -16438.339      0.00023567323
     94000   94             4541.1899      1.0792898      1.3839146e+09 -13570.935      2861.013      -16431.948      0.00024197175
     95000   95             4487.2437      0.96359405     1.4148936e+09 -13622.8        2827.0261     -16449.826      0.0002366738 
     96000   96             4472.3098      1.0399537      1.4447827e+09 -13622.523      2817.6175     -16440.14       0.00023177759
     97000   97             4508.0277      1.0629402      1.4367448e+09 -13609.811      2840.1203     -16449.931      0.00023307428
     98000   98             4528.7001      1.1193714      1.3803664e+09 -13593.139      2853.1442     -16446.283      0.00024259375
     99000   99             4501.5749      0.95123699     1.3695913e+09 -13618.669      2836.055      -16454.724      0.00024450233
    100000   100            4560.481       1.280348       1.4041032e+09 -13539.754      2873.1666     -16412.921      0.00023849262
    101000   101            4475.0364      0.9810076      1.4222018e+09 -13609.046      2819.3353     -16428.381      0.00023545762
    102000   102            4559.9794      1.0447347      1.4133407e+09 -13605.049      2872.8506     -16477.9        0.00023693384
    103000   103            4432.1385      1.0106657      1.3942131e+09 -13673.4        2792.3091     -16465.709      0.00024018441
    104000   104            4526.7454      1.0579245      1.3582548e+09 -13565.094      2851.9127     -16417.007      0.00024654303
    105000   105            4505.2745      0.97142987     1.3823538e+09 -13638.095      2838.3858     -16476.48       0.00024224497
    106000   106            4410.7634      0.94923343     1.4307037e+09 -13636.442      2778.8425     -16415.284      0.00023405843
    107000   107            4380.4477      0.91041554     1.4314119e+09 -13684.806      2759.7431     -16444.549      0.00023394263
    108000   108            4412.1368      0.90774262     1.4034456e+09 -13669.271      2779.7077     -16448.979      0.00023860437
    109000   109            4435.6569      1.1290343      1.3825297e+09 -13699.07       2794.5257     -16493.596      0.00024221415
    110000   110            4359.4155      1.0403323      1.3823396e+09 -13732.304      2746.4925     -16478.797      0.00024224745
    111000   111            4451.1502      0.97316544     1.4176906e+09 -13658.81       2804.2867     -16463.097      0.00023620686
    112000   112            4423.9661      1.0681126      1.454994e+09  -13667.671      2787.1603     -16454.831      0.00023015095
    113000   113            4389.6112      1.060025       1.4195198e+09 -13660.114      2765.5163     -16425.63       0.00023590249
    114000   114            4573.7056      1.1548939      1.3834428e+09 -13596.509      2881.4983     -16478.007      0.00024205429
    115000   115            4403.8398      0.87137959     1.3941454e+09 -13673.641      2774.4805     -16448.122      0.00024019608
    116000   116            4467.813       0.86673433     1.4091249e+09 -13668.018      2814.7845     -16482.802      0.00023764271
    117000   117            4494.8227      1.1023486      1.4137036e+09 -13624.033      2831.801      -16455.834      0.00023687303
    118000   118            4381.5347      1.2204915      1.3941831e+09 -13695.366      2760.428      -16455.794      0.00024018958
    119000   119            4372.3153      1.1929862      1.3574628e+09 -13710.679      2754.6196     -16465.299      0.00024668687
    120000   120            4311.0666      1.1571515      1.370912e+09  -13749.429      2716.0321     -16465.461      0.00024426678
    121000   121            4362.2026      0.84739144     1.4219704e+09 -13706.298      2748.2485     -16454.546      0.00023549593
    122000   122            4384.1853      0.64310488     1.419869e+09  -13700.22       2762.0979     -16462.318      0.00023584447
    123000   123            4393.5373      1.1289877      1.3915713e+09 -13701.407      2767.9898     -16469.397      0.00024064038
    124000   124            4371.0802      0.92947938     1.384916e+09  -13723.48       2753.8415     -16477.322      0.0002417968 
    125000   125            4361.6442      0.84943219     1.3900352e+09 -13726.835      2747.8966     -16474.731      0.00024090631
    126000   126            4362.6484      1.2049351      1.3888218e+09 -13736.049      2748.5293     -16484.578      0.00024111679
    127000   127            4387.551       0.80568729     1.3887115e+09 -13677.919      2764.2183     -16442.138      0.00024113595
    128000   128            4465.1794      1.0965634      1.3985539e+09 -13655.054      2813.1253     -16468.179      0.00023943892
    129000   129            4413.297       0.95322        1.4116733e+09 -13683.363      2780.4387     -16463.801      0.0002372137 
    130000   130            4531.1755      1.0950816      1.3949661e+09 -13630.281      2854.7037     -16484.985      0.00024005476
    131000   131            4359.8         0.89863215     1.37027e+09   -13701.707      2746.7348     -16448.441      0.00024438121
    132000   132            4458.2461      1.0564078      1.3710045e+09 -13679.159      2808.7572     -16487.917      0.0002442503 
    133000   133            4343.2546      1.0634523      1.4170006e+09 -13727.034      2736.311      -16463.345      0.00023632188
    134000   134            4302.3442      0.82027972     1.4240292e+09 -13725.292      2710.5369     -16435.829      0.00023515547
    135000   135            4345.3015      1.0529753      1.3498242e+09 -13749.685      2737.6006     -16487.285      0.00024808287
    136000   136            4366.7253      1.2871906      1.3460326e+09 -13746.074      2751.0978     -16497.171      0.00024878169
    137000   137            4324.8722      0.80577476     1.3780574e+09 -13741.831      2724.7298     -16466.561      0.00024300021
    138000   138            4329.7765      0.81081422     1.3999324e+09 -13725.825      2727.8196     -16453.644      0.00023920315
    139000   139            4359.618       1.0821055      1.3944176e+09 -13741.801      2746.6202     -16488.421      0.00024014919
    140000   140            4257.3443      1.1461575      1.3650087e+09 -13783.107      2682.1863     -16465.293      0.00024532317
    141000   141            4299.4498      0.98953753     1.3232445e+09 -13766.423      2708.7133     -16475.137      0.00025306603
    142000   142            4381.1846      0.90920237     1.3574683e+09 -13707.749      2760.2074     -16467.957      0.00024668588
    143000   143            4287.965       1.1139028      1.4041373e+09 -13754.125      2701.4777     -16455.603      0.00023848683
    144000   144            4268.2206      0.90081064     1.3917147e+09 -13744.868      2689.0385     -16433.907      0.00024061558
    145000   145            4286.0295      1.0458119      1.3654172e+09 -13743.228      2700.2584     -16443.486      0.00024524977
    146000   146            4351.3615      0.98554419     1.3533788e+09 -13711.146      2741.4185     -16452.564      0.00024743128
    147000   147            4295.7632      1.0398382      1.3941537e+09 -13774.213      2706.3907     -16480.604      0.00024019464
    148000   148            4351.0194      0.8768762      1.4184587e+09 -13725.606      2741.2029     -16466.809      0.00023607895
    149000   149            4281.4217      1.0365991      1.3795251e+09 -13788.345      2697.3554     -16485.7        0.00024274169
    150000   150            4215.1824      0.85772761     1.3519009e+09 -13833.328      2655.6237     -16488.952      0.00024770177
    151000   151            4267.5412      1.0955663      1.3632999e+09 -13816.718      2688.6105     -16505.329      0.00024563065
    152000   152            4245.8899      0.93252313     1.4334231e+09 -13803.41       2674.9698     -16478.38       0.00023361438
    153000   153            4242.0545      0.78606821     1.4454415e+09 -13815.358      2672.5535     -16487.912      0.00023167196
    154000   154            4238.8857      0.82700462     1.3904679e+09 -13816.46       2670.5571     -16487.018      0.00024083135
    155000   155            4326.7102      1.0327886      1.355705e+09  -13765.138      2725.8877     -16491.025      0.00024700673
    156000   156            4200.1954      0.79867248     1.3564998e+09 -13818.06       2646.1817     -16464.242      0.000246862  
    157000   157            4325.6895      1.0667054      1.3778599e+09 -13785.797      2725.2447     -16511.041      0.00024303506
    158000   158            4314.9354      0.77843702     1.4039272e+09 -13773.775      2718.4695     -16492.245      0.00023852252
    159000   159            4265.5663      0.94129927     1.4032001e+09 -13793.513      2687.3663     -16480.879      0.00023864611
    160000   160            4199.0017      0.90874841     1.3488019e+09 -13845.101      2645.4296     -16490.531      0.00024827089
    161000   161            4308.5756      1.0771746      1.3333455e+09 -13798.972      2714.4627     -16513.435      0.0002511489 
    162000   162            4216.9345      1.1655077      1.3611215e+09 -13857.748      2656.7276     -16514.476      0.00024602378
    163000   163            4149.4067      0.94283627     1.3778642e+09 -13898.058      2614.1841     -16512.242      0.00024303429
    164000   164            4186.9475      0.95221688     1.3702949e+09 -13865.897      2637.8353     -16503.732      0.00024437678
    165000   165            4096.9445      0.88007924     1.3608657e+09 -13925.397      2581.1321     -16506.529      0.00024607001
    166000   166            4097.5713      0.91609961     1.3468038e+09 -13896.772      2581.5271     -16478.299      0.00024863921
    167000   167            4165.9936      1.1666405      1.3295795e+09 -13881.456      2624.6341     -16506.09       0.00025186026
    168000   168            4173.5705      0.98375494     1.3182741e+09 -13874.657      2629.4076     -16504.064      0.00025402019
    169000   169            4180.5206      0.9681285      1.3558413e+09 -13828.287      2633.7863     -16462.073      0.00024698189
    170000   170            4184.8839      0.90582891     1.3843179e+09 -13863.98       2636.5352     -16500.515      0.00024190127
    171000   171            4168.1179      1.0519073      1.3602821e+09 -13869.175      2625.9724     -16495.147      0.0002461756 
    172000   172            4179.2734      1.0040755      1.3371184e+09 -13872.161      2633.0006     -16505.162      0.00025044024
    173000   173            4163.9403      0.78403675     1.3402019e+09 -13899.754      2623.3405     -16523.094      0.00024986403
    174000   174            4084.5627      1.2427871      1.3482966e+09 -13937.11       2573.3315     -16510.442      0.00024836394
    175000   175            4139.0328      0.76518224     1.3594185e+09 -13870.305      2607.6484     -16477.953      0.00024633199
    176000   176            4149.0545      0.9413035      1.3598818e+09 -13899.577      2613.9622     -16513.539      0.00024624805
    177000   177            4150.7784      0.84186866     1.3389007e+09 -13880.544      2615.0483     -16495.592      0.00025010686
    178000   178            4135.8261      1.2753907      1.3145575e+09 -13942.987      2605.6281     -16548.615      0.00025473838
    179000   179            4056.5454      0.94129182     1.3161827e+09 -13950.744      2555.6801     -16506.425      0.00025442384
    180000   180            4097.6359      1.021282       1.3659432e+09 -13918.019      2581.5678     -16499.586      0.00024515533
    181000   181            4031.239       1.006928       1.3783504e+09 -13988.359      2539.7368     -16528.096      0.00024294856
    182000   182            4040.5023      1.0523006      1.3354399e+09 -13992.609      2545.5728     -16538.181      0.000250755  
    183000   183            3993.3784      1.0798995      1.3201813e+09 -13982.47       2515.8841     -16498.354      0.00025365323
    184000   184            4063.2556      1.0967127      1.3242677e+09 -13981.936      2559.9077     -16541.844      0.0002528705 
    185000   185            4038.4549      0.93992322     1.3335467e+09 -13940.816      2544.2829     -16485.099      0.000251111  
    186000   186            4066.6202      0.86658754     1.3392788e+09 -13938.942      2562.0274     -16500.969      0.00025003624
    187000   187            4107.4977      1.0102649      1.3400435e+09 -13929.765      2587.7809     -16517.546      0.00024989356
    188000   188            4015.079       0.98505345     1.3132342e+09 -13981.103      2529.5558     -16510.659      0.00025499508
    189000   189            4114.096       1.0983598      1.2828004e+09 -13970.267      2591.9379     -16562.205      0.00026104471
    190000   190            4024.9117      0.9474445      1.3054905e+09 -13990.859      2535.7505     -16526.609      0.0002565076 
    191000   191            4088.2277      1.0006269      1.3527968e+09 -13920.626      2575.6405     -16496.267      0.00024753773
    192000   192            4053.5961      1.0510744      1.3421809e+09 -13982.321      2553.8221     -16536.144      0.00024949561
    193000   193            4043.655       0.90647504     1.3100004e+09 -13996.493      2547.5591     -16544.052      0.00025562454
    194000   194            4002.5686      1.0553658      1.2950158e+09 -14022.284      2521.674      -16543.958      0.00025858237
    195000   195            4027.8507      0.93783025     1.3040516e+09 -14039.823      2537.6021     -16577.425      0.00025679065
    196000   196            3955.9093      0.84932332     1.3574354e+09 -14033.524      2492.278      -16525.802      0.00024669185
    197000   197            3969.98        0.96748863     1.3710722e+09 -14027.075      2501.1427     -16528.217      0.00024423823
    198000   198            4013.3113      0.98283312     1.3197705e+09 -14044.603      2528.4421     -16573.045      0.00025373219
    199000   199            3954.6475      1.0213         1.2956925e+09 -14103.777      2491.4831     -16595.26       0.00025844731
    200000   200            3979.3877      1.0129234      1.287985e+09  -14061.789      2507.0697     -16568.859      0.00025999391
    201000   201            3908.2033      1.0440154      1.3038253e+09 -14104.943      2462.2226     -16567.165      0.0002568352 
    202000   202            3930.1389      1.012726       1.3432103e+09 -14065.915      2476.0423     -16541.957      0.0002493044 
    203000   203            3961.1152      0.87595799     1.3469925e+09 -14070.732      2495.5578     -16566.29       0.00024860438
    204000   204            3953.9625      1.0335703      1.2814065e+09 -14064.329      2491.0515     -16555.38       0.00026132866
    205000   205            3971.7618      1.0483873      1.2804451e+09 -14077.46       2502.2653     -16579.726      0.00026152489
    206000   206            3937.3741      1.0190157      1.3044952e+09 -14125.794      2480.6006     -16606.395      0.00025670332
    207000   207            3901.9114      1.1648032      1.3116663e+09 -14116.523      2458.2586     -16574.781      0.00025529987
    208000   208            3896.9252      1.0044315      1.2819421e+09 -14115.33       2455.1172     -16570.447      0.00026121949
    209000   209            3985.5144      1.1522746      1.2393511e+09 -14105.952      2510.9297     -16616.882      0.00027019644
    210000   210            3921.0068      1.0026606      1.2592321e+09 -14134.436      2470.289      -16604.725      0.00026593052
    211000   211            3929.2481      1.0346273      1.2769769e+09 -14108.983      2475.4811     -16584.464      0.00026223516
    212000   212            3893.7736      0.91497111     1.2864953e+09 -14137.908      2453.1317     -16591.04       0.00026029498
    213000   213            3855.859       1.0026431      1.2894202e+09 -14150.561      2429.2449     -16579.806      0.00025970453
    214000   214            3937.9046      0.78741821     1.2886175e+09 -14136.558      2480.9348     -16617.493      0.00025986629
    215000   215            3923.5351      0.90052308     1.272989e+09  -14141.843      2471.8818     -16613.725      0.00026305667
    216000   216            3857.1432      1.1593964      1.2569155e+09 -14199.727      2430.054      -16629.781      0.00026642064
    217000   217            3843.1721      1.1752829      1.2597692e+09 -14166.116      2421.252      -16587.368      0.00026581715
    218000   218            3972.7788      1.0554986      1.2988991e+09 -14098.866      2502.906      -16601.772      0.00025780928
    219000   219            3887.9619      0.79166206     1.3177918e+09 -14101.837      2449.4702     -16551.307      0.00025411317
    220000   220            3906.3722      1.0818286      1.2758215e+09 -14154.237      2461.069      -16615.306      0.00026247265
    221000   221            3895.3906      0.99967447     1.2367862e+09 -14172.616      2454.1504     -16626.766      0.00027075678
    222000   222            3970.4622      0.96920242     1.2491805e+09 -14140.629      2501.4465     -16642.076      0.00026807036
    223000   223            3945.3019      0.92034584     1.2685278e+09 -14116.532      2485.5952     -16602.127      0.00026398179
    224000   224            3943.9155      1.1979112      1.2853533e+09 -14137.631      2484.7218     -16622.353      0.00026052624
    225000   225            3941.9283      1.0017042      1.2869589e+09 -14108.238      2483.4698     -16591.708      0.0002602012 
    226000   226            3859.2935      0.85899538     1.2447921e+09 -14165.984      2431.4087     -16597.393      0.0002690154 
    227000   227            3893.4369      1.0852855      1.2242259e+09 -14167.711      2452.9195     -16620.63       0.00027353468
    228000   228            3890.7768      0.9504347      1.2559045e+09 -14163.994      2451.2436     -16615.237      0.00026663513
    229000   229            3871.6187      1.056729       1.277918e+09  -14190.251      2439.1738     -16629.425      0.00026204204
    230000   230            3751.6626      0.73763799     1.273226e+09  -14236.336      2363.5998     -16599.936      0.00026300771
    231000   231            3839.0477      1.0383104      1.2566957e+09 -14213.179      2418.6536     -16631.832      0.00026646725
    232000   232            3852.7505      1.0117007      1.2423451e+09 -14199.616      2427.2866     -16626.903      0.00026954528
    233000   233            3914.5209      1.1506359      1.2777966e+09 -14155.599      2466.2028     -16621.802      0.00026206695
    234000   234            3794.3325      0.85227363     1.3284508e+09 -14179.563      2390.4824     -16570.045      0.00025207427
    235000   235            3871.0804      1.031994       1.2878406e+09 -14169.599      2438.8346     -16608.434      0.00026002306
    236000   236            3871.6137      0.98824393     1.2533387e+09 -14183.116      2439.1706     -16622.286      0.00026718096
    237000   237            3879.2746      0.93224867     1.2464826e+09 -14183.122      2443.9971     -16627.119      0.00026865056
    238000   238            3827.5462      1.0535355      1.2531999e+09 -14218.372      2411.4075     -16629.779      0.00026721057
    239000   239            3823.8082      0.98870377     1.2416773e+09 -14246.37       2409.0525     -16655.422      0.00026969024
    240000   240            3817.7926      1.1010399      1.2010365e+09 -14259.813      2405.2626     -16665.076      0.00027881605
    241000   241            3804.7733      1.0051608      1.2020015e+09 -14249.367      2397.0603     -16646.428      0.00027859221
    242000   242            3814.5865      1.2139191      1.248696e+09  -14227.875      2403.2427     -16631.118      0.00026817436
    243000   243            3819.7924      0.89846082     1.2572839e+09 -14247.257      2406.5225     -16653.78       0.00026634259
    244000   244            3780.5807      1.1063285      1.241915e+09  -14266.256      2381.8186     -16648.074      0.00026963862
    245000   245            3716.5173      1.2001094      1.2204181e+09 -14327.976      2341.4577     -16669.434      0.00027438814
    246000   246            3747.4939      1.0734739      1.2142205e+09 -14291.298      2360.9734     -16652.272      0.00027578867
    247000   247            3806.2139      0.97363788     1.2435773e+09 -14268.596      2397.9678     -16666.563      0.00026927819
    248000   248            3777.4717      0.98621375     1.2682309e+09 -14266.236      2379.8599     -16646.096      0.00026404359
    249000   249            3695.5097      1.0456351      1.2431436e+09 -14340.388      2328.2227     -16668.611      0.00026937214
    250000   250            3786.0542      1.2670479      1.2097989e+09 -14315.464      2385.2669     -16700.731      0.00027679661
    251000   251            3692.7388      0.95110417     1.2110755e+09 -14320.896      2326.477      -16647.373      0.00027650486
    252000   252            3824.4179      1.2381938      1.2227154e+09 -14248.437      2409.4366     -16657.874      0.00027387261
    253000   253            3749.0036      1.1073746      1.2435733e+09 -14295.046      2361.9246     -16656.971      0.00026927906
    254000   254            3760.2454      0.91876441     1.246551e+09  -14294.568      2369.0071     -16663.576      0.00026863582
    255000   255            3706.0297      0.89711074     1.1958818e+09 -14326.468      2334.8504     -16661.319      0.00028001784
    256000   256            3722.782       1.3059526      1.1812413e+09 -14335.919      2345.4046     -16681.323      0.00028348844
    257000   257            3702.8027      0.79241607     1.2075659e+09 -14347.609      2332.8173     -16680.426      0.00027730848
    258000   258            3672.7956      1.0522054      1.2338522e+09 -14378.832      2313.9124     -16692.744      0.00027140062
    259000   259            3719.6764      0.97280979     1.2325423e+09 -14329.148      2343.448      -16672.596      0.00027168906
    260000   260            3776.1006      1.1073236      1.2214991e+09 -14292.123      2378.9961     -16671.119      0.00027414532
    261000   261            3713.1516      0.9504397      1.2191117e+09 -14325.216      2339.3373     -16664.553      0.00027468218
    262000   262            3676.8817      0.82499268     1.2104832e+09 -14328.93       2316.4867     -16645.416      0.00027664014
    263000   263            3760.7626      1.0745951      1.1996802e+09 -14295.844      2369.3329     -16665.177      0.00027913127
    264000   264            3726.2697      0.98803614     1.2168867e+09 -14330.172      2347.6019     -16677.774      0.0002751844 
    265000   265            3698.2998      0.91722699     1.2467054e+09 -14322.231      2329.9804     -16652.212      0.00026860255
    266000   266            3663.8344      0.97200445     1.2302855e+09 -14344.705      2308.2668     -16652.972      0.00027218744
    267000   267            3727.9927      1.0736167      1.1898443e+09 -14334.983      2348.6874     -16683.67       0.00028143872
    268000   268            3679.4505      0.83379095     1.1873195e+09 -14369.851      2318.1051     -16687.956      0.00028203719
    269000   269            3631.6274      0.86609416     1.205406e+09  -14381.053      2287.9759     -16669.028      0.00027780537
    270000   270            3536.0985      0.89271229     1.2176479e+09 -14421.026      2227.7914     -16648.817      0.00027501239
    271000   271            3640.8315      0.95902074     1.2123882e+09 -14382.111      2293.7746     -16675.885      0.00027620547
    272000   272            3655.0054      1.0672097      1.1833082e+09 -14388.995      2302.7044     -16691.7        0.00028299326
    273000   273            3671.2749      1.1513523      1.1580185e+09 -14334.203      2312.9544     -16647.157      0.00028917349
    274000   274            3621.6427      0.99296978     1.1845162e+09 -14403.179      2281.6854     -16684.864      0.00028270466
    275000   275            3611.587       0.85872026     1.2218395e+09 -14396.407      2275.3502     -16671.757      0.00027406894
    276000   276            3649.2021      1.0381376      1.2180562e+09 -14386.577      2299.0482     -16685.626      0.0002749202 
    277000   277            3621.2521      1.0364649      1.1949702e+09 -14394.863      2281.4393     -16676.302      0.00028023146
    278000   278            3707.6028      1.2708444      1.1811776e+09 -14410.714      2335.8415     -16746.555      0.00028350372
    279000   279            3658.3895      0.88723778     1.1867753e+09 -14402.39       2304.8364     -16707.226      0.00028216651
    280000   280            3616.2106      0.7921386      1.1939898e+09 -14413.871      2278.2631     -16692.134      0.00028046157
    281000   281            3655.7198      0.80238632     1.198469e+09  -14392.573      2303.1544     -16695.728      0.00027941335
    282000   282            3598.6413      1.0692813      1.2019608e+09 -14436.375      2267.1942     -16703.569      0.00027860164
    283000   283            3538.8628      1.2219194      1.177599e+09  -14492.661      2229.5329     -16722.194      0.00028436526
    284000   284            3553.6439      0.99751828     1.1554995e+09 -14488.022      2238.8452     -16726.867      0.00028980389
    285000   285            3522.22        0.87492569     1.1763169e+09 -14488.521      2219.0477     -16707.569      0.0002846752 
    286000   286            3560.3876      0.7378855      1.2081904e+09 -14482.739      2243.0938     -16725.833      0.00027716512
    287000   287            3532.6904      0.97925994     1.2043588e+09 -14495.01       2225.6442     -16720.655      0.00027804691
    288000   288            3489.9717      0.97424351     1.1832973e+09 -14531.043      2198.7309     -16729.774      0.00028299588
    289000   289            3563.4227      1.1739982      1.1701925e+09 -14514.178      2245.006      -16759.184      0.0002861651 
    290000   290            3528.6957      0.99921639     1.172348e+09  -14497.241      2223.1275     -16720.368      0.00028563895
    291000   291            3560.7504      1.0497134      1.1814636e+09 -14484.209      2243.3224     -16727.532      0.0002834351 
    292000   292            3509.922       0.85463006     1.1930796e+09 -14513.63       2211.2998     -16724.93       0.00028067553
    293000   293            3510.7762      1.1460181      1.2021426e+09 -14519.591      2211.838      -16731.429      0.00027855951
    294000   294            3482.7833      0.93411804     1.1826251e+09 -14535.475      2194.2021     -16729.677      0.00028315673
    295000   295            3574.0484      1.1609229      1.1462781e+09 -14486.695      2251.7003     -16738.395      0.00029213525
    296000   296            3518.1958      0.91714852     1.1446913e+09 -14539.282      2216.5124     -16755.794      0.00029254024
    297000   297            3449.0929      1.074591       1.1744681e+09 -14556.912      2172.9766     -16729.888      0.00028512333
    298000   298            3464.3064      0.70278547     1.1903222e+09 -14522.197      2182.5613     -16704.758      0.00028132572
    299000   299            3478.0401      1.0425341      1.1768396e+09 -14516.025      2191.2138     -16707.239      0.00028454877
    300000   300            3599.6234      1.173774       1.1608559e+09 -14496.086      2267.8129     -16763.899      0.00028846668
    301000   301            3505.3685      1.235204       1.1530052e+09 -14537.704      2208.431      -16746.135      0.00029043083
    302000   302            3581.0318      1.2836718      1.1500911e+09 -14498.966      2256.1        -16755.066      0.00029116673
    303000   303            3503.1974      0.88455766     1.1565013e+09 -14539.372      2207.0632     -16746.435      0.00028955286
    304000   304            3547.154       0.8593837      1.1577054e+09 -14532.583      2234.7565     -16767.339      0.0002892517 
    305000   305            3528.5152      0.95693139     1.1525647e+09 -14525.242      2223.0138     -16748.256      0.00029054183
    306000   306            3529.5967      1.1797384      1.142739e+09  -14554.671      2223.6952     -16778.366      0.00029304002
    307000   307            3506.6049      0.87991685     1.1212242e+09 -14570.151      2209.21       -16779.361      0.00029866307
    308000   308            3470.1502      1.2677211      1.1194002e+09 -14599.001      2186.243      -16785.244      0.00029914973
    309000   309            3414.1795      0.86773638     1.1569642e+09 -14622.494      2150.9807     -16773.474      0.000289437  
    310000   310            3428.0651      0.98081337     1.1763986e+09 -14624.611      2159.7288     -16784.34       0.00028465543
    311000   311            3401.7457      0.82972901     1.1594954e+09 -14615.833      2143.1472     -16758.981      0.00028880515
    312000   312            3392.7754      1.114594       1.1380384e+09 -14662.369      2137.4958     -16799.865      0.0002942504 
    313000   313            3440.4351      1.0810093      1.1340245e+09 -14607.528      2167.5221     -16775.05       0.0002952919 
    314000   314            3399.3552      0.95527985     1.1376264e+09 -14650.393      2141.6412     -16792.034      0.00029435695
    315000   315            3451.9343      0.85664699     1.1358904e+09 -14606.505      2174.7668     -16781.272      0.00029480684
    316000   316            3443.152       1.089684       1.1238623e+09 -14593.117      2169.2338     -16762.351      0.00029796199
    317000   317            3439.8904      1.0184813      1.1020227e+09 -14624.06       2167.1789     -16791.239      0.00030386692
    318000   318            3446.4466      1.0972482      1.1029007e+09 -14640.732      2171.3094     -16812.041      0.00030362501
    319000   319            3444.5379      1.0948781      1.1389765e+09 -14622.156      2170.1069     -16792.263      0.00029400804
    320000   320            3402.4751      0.86568834     1.1542739e+09 -14645.462      2143.6068     -16789.068      0.00029011159
    321000   321            3444.2147      0.83412072     1.1354285e+09 -14624.743      2169.9033     -16794.647      0.00029492677
    322000   322            3315.6302      1.1422797      1.1180025e+09 -14699.682      2088.8933     -16788.575      0.00029952371
    323000   323            3389.5458      0.90190887     1.1147347e+09 -14674.219      2135.4611     -16809.68       0.00030040175
    324000   324            3322.7978      0.99873419     1.1161659e+09 -14695.032      2093.4089     -16788.441      0.00030001656
    325000   325            3290.0034      0.71754384     1.1246113e+09 -14720.604      2072.748      -16793.352      0.00029776354
    326000   326            3332.1797      0.87810196     1.1249019e+09 -14685.863      2099.3197     -16785.182      0.00029768661
    327000   327            3304.1261      0.82857783     1.0968297e+09 -14747.951      2081.6455     -16829.597      0.0003053056 
    328000   328            3374.1361      1.2034124      1.0764507e+09 -14706.194      2125.7528     -16831.947      0.00031108554
    329000   329            3330.7081      1.1341118      1.099664e+09  -14722.542      2098.3926     -16820.935      0.0003045187 
    330000   330            3322.1674      0.87188975     1.1261307e+09 -14720.517      2093.0118     -16813.529      0.00029736179
    331000   331            3286.325       1.2736292      1.1219473e+09 -14750.921      2070.4306     -16821.352      0.00029847057
    332000   332            3323.5089      0.90529588     1.1064124e+09 -14742.071      2093.857      -16835.928      0.00030266133
    333000   333            3262.836       0.94021408     1.1009732e+09 -14743.028      2055.6322     -16798.66       0.00030415657
    334000   334            3212.7251      1.0676125      1.1031309e+09 -14814.724      2024.0616     -16838.786      0.00030356167
    335000   335            3271.581       0.70887288     1.1012061e+09 -14753.406      2061.1417     -16814.548      0.00030409225
    336000   336            3272.4828      1.3741376      1.1014333e+09 -14780.993      2061.7098     -16842.703      0.00030402953
    337000   337            3321.0814      0.84751204     1.0832117e+09 -14765.082      2092.3276     -16857.409      0.00030914386
    338000   338            3241.7442      0.92814251     1.0662608e+09 -14797.504      2042.3441     -16839.848      0.00031405848
    339000   339            3268.2344      1.0579268      1.0845538e+09 -14779.42       2059.0333     -16838.454      0.00030876132
    340000   340            3313.1108      1.0329416      1.1217394e+09 -14728.068      2087.306      -16815.374      0.00029852588
    341000   341            3359.0126      0.9627508      1.1255925e+09 -14738.847      2116.2248     -16855.072      0.00029750398
    342000   342            3324.6338      0.88238329     1.1013518e+09 -14740.661      2094.5657     -16835.226      0.00030405202
    343000   343            3296.2715      0.94904024     1.087969e+09  -14754.12       2076.697      -16830.817      0.00030779209
    344000   344            3297.7244      0.80461734     1.0824674e+09 -14791.33       2077.6123     -16868.943      0.00030935642
    345000   345            3317.0002      0.86956545     1.0820265e+09 -14777.136      2089.7564     -16866.892      0.00030948248
    346000   346            3304.764       1.2979153      1.0879291e+09 -14784.447      2082.0474     -16866.495      0.00030780338
    347000   347            3332.5473      1.2625063      1.085598e+09  -14786.671      2099.5512     -16886.223      0.00030846431
    348000   348            3266.1579      1.0387201      1.0790244e+09 -14808.003      2057.725      -16865.729      0.00031034353
    349000   349            3261.3464      0.98494087     1.0764973e+09 -14771.763      2054.6937     -16826.457      0.00031107208
    350000   350            3246.6563      1.1353719      1.0836877e+09 -14805.443      2045.4387     -16850.882      0.00030900807
    351000   351            3196.3281      0.8812249      1.0935735e+09 -14842.637      2013.7313     -16856.368      0.00030621467
    352000   352            3284.2768      1.0459344      1.0825206e+09 -14809.079      2069.1402     -16878.219      0.00030934123
    353000   353            3267.0382      0.99499956     1.0498369e+09 -14819.266      2058.2797     -16877.546      0.0003189717 
    354000   354            3232.7408      1.1545636      1.0482857e+09 -14837.878      2036.6718     -16874.55       0.00031944367
    355000   355            3248.8228      0.93238113     1.0796197e+09 -14813.494      2046.8037     -16860.298      0.00031017241
    356000   356            3286.0589      0.83085127     1.1046985e+09 -14813.423      2070.2629     -16883.686      0.0003031309 
    357000   357            3208.6721      0.95411138     1.0929273e+09 -14822.482      2021.5081     -16843.991      0.00030639571
    358000   358            3207.9051      1.0407988      1.0694348e+09 -14853.775      2021.0249     -16874.8        0.00031312637
    359000   359            3182.3568      0.95746314     1.0563832e+09 -14881.097      2004.9292     -16886.026      0.00031699505
    360000   360            3149.8344      0.92978962     1.0521263e+09 -14892.433      1984.4396     -16876.873      0.00031827762
    361000   361            3125.9199      1.0372411      1.0574849e+09 -14912.036      1969.3731     -16881.409      0.0003166648 
    362000   362            3187.8238      0.80070023     1.0639248e+09 -14896.487      2008.3734     -16904.861      0.00031474804
    363000   363            3169.3113      0.90137172     1.0616092e+09 -14895.49       1996.7103     -16892.2        0.00031543459
    364000   364            3187.7572      0.99755222     1.0469787e+09 -14908.812      2008.3315     -16917.144      0.00031984248
    365000   365            3123.33        0.94790608     1.0311775e+09 -14939.636      1967.7415     -16907.378      0.00032474357
    366000   366            3121.222       0.76523893     1.0225513e+09 -14946.098      1966.4134     -16912.511      0.0003274831 
    367000   367            3120.3937      0.76364698     1.0404243e+09 -14929.147      1965.8916     -16895.039      0.00032185738
    368000   368            3170.8562      1.0618635      1.0764335e+09 -14924.894      1997.6836     -16922.577      0.0003110905 
    369000   369            3124.3263      0.82138701     1.0713034e+09 -14943.556      1968.3691     -16911.925      0.00031258023
    370000   370            3136.5227      1.0897661      1.042983e+09  -14933.221      1976.053      -16909.274      0.00032106778
    371000   371            3088.9821      0.89079257     1.0309065e+09 -14975.192      1946.1018     -16921.293      0.00032482891
    372000   372            3062.3552      0.72585578     1.0304278e+09 -14950.072      1929.3265     -16879.399      0.00032497983
    373000   373            3087.2779      0.8148714      1.0412102e+09 -14961.745      1945.0282     -16906.773      0.00032161444
    374000   374            3138.7843      0.76740657     1.0494651e+09 -14947.426      1977.4779     -16924.904      0.00031908471
    375000   375            3131.0941      0.98040539     1.0464226e+09 -14936.194      1972.6329     -16908.827      0.00032001244
    376000   376            3169.553       1.2794707      1.0259613e+09 -14919.76       1996.8626     -16916.623      0.00032639462
    377000   377            3199.8143      1.188518       1.006254e+09  -14915.361      2015.9276     -16931.289      0.00033278699
    378000   378            3146.5128      0.90780253     1.0194846e+09 -14903.41       1982.347      -16885.757      0.00032846817
    379000   379            3154.882       0.88407517     1.0515148e+09 -14922.004      1987.6196     -16909.624      0.0003184627 
    380000   380            3151.7435      1.0601608      1.0513165e+09 -14945.229      1985.6424     -16930.871      0.00031852277
    381000   381            3190.8683      0.99567801     1.0220737e+09 -14915.68       2010.2916     -16925.972      0.0003276361 
    382000   382            3146.9991      1.0095037      1.0074957e+09 -14927.571      1982.6534     -16910.225      0.00033237685
    383000   383            3080.8597      1.222391       1.0125343e+09 -14975.819      1940.9846     -16916.804      0.00033072287
    384000   384            3116.3127      0.90733804     1.0326716e+09 -14953.287      1963.3205     -16916.608      0.00032427372
    385000   385            3053.1945      1.1413605      1.0567178e+09 -14958.943      1923.5551     -16882.498      0.00031689467
    386000   386            3099.0501      1.0297958      1.0428918e+09 -14953.484      1952.4448     -16905.929      0.00032109587
    387000   387            3071.2456      1.0326251      9.9354165e+08 -15005.709      1934.9276     -16940.637      0.00033704501
    388000   388            3038.9151      1.1502976      9.9092141e+08 -15035.794      1914.5589     -16950.353      0.00033793624
    389000   389            3068.5474      1.1212151      1.0097484e+09 -15009.864      1933.2276     -16943.092      0.00033163533
    390000   390            3051.0023      1.0395011      1.0305622e+09 -15018.122      1922.174      -16940.296      0.00032493746
    391000   391            3063.5186      0.85510211     1.0207072e+09 -14999.83       1930.0594     -16929.89       0.00032807474
    392000   392            3076.4184      0.9845651      9.994407e+08  -14994.361      1938.1865     -16932.548      0.00033505565
    393000   393            3084.8691      1.2550389      9.8702841e+08 -15014.355      1943.5106     -16957.866      0.00033926911
    394000   394            2997.2336      0.94179543     9.8568653e+08 -15050.205      1888.299      -16938.504      0.00033973098
    395000   395            3023.4118      1.0126429      9.9389926e+08 -15052.959      1904.7916     -16957.751      0.00033692373
    396000   396            2971.3247      1.0512085      1.0055241e+09 -15074.372      1871.976      -16946.348      0.00033302855
    397000   397            2949.2018      0.80511524     1.0091042e+09 -15093          1858.0383     -16951.038      0.00033184704
    398000   398            3011.1923      1.0682782      9.8018839e+08 -15062.384      1897.0931     -16959.477      0.00034163662
    399000   399            2925.5622      0.71644146     9.6185141e+08 -15101.803      1843.145      -16944.948      0.00034814967
    400000   400            2987.8317      0.83027988     9.6650481e+08 -15085.6        1882.3756     -16967.975      0.00034647344
    401000   401            2970.9821      0.84449928     9.8822437e+08 -15090.626      1871.7601     -16962.386      0.00033885852
    402000   402            2981.1533      0.84472808     1.0177596e+09 -15075.325      1878.1682     -16953.493      0.00032902488
    403000   403            2958.1829      1.0614341      1.0158091e+09 -15094.915      1863.6965     -16958.611      0.00032965667
    404000   404            2975.1812      0.94867591     9.6831633e+08 -15105.654      1874.4057     -16980.06       0.00034582526
    405000   405            2980.6489      0.96679743     9.6061095e+08 -15098.572      1877.8504     -16976.422      0.00034859924
    406000   406            3023.7548      1.1789959      9.66261e+08   -15080.961      1905.0077     -16985.969      0.00034656087
    407000   407            2921.2885      0.96856431     9.7746176e+08 -15129.509      1840.4525     -16969.961      0.00034258962
    408000   408            2926.5385      1.1219379      9.8019426e+08 -15125.895      1843.7601     -16969.655      0.00034163458
    409000   409            2935.8159      1.2757886      9.5819005e+08 -15118.646      1849.605      -16968.251      0.00034947999
    410000   410            2954.8696      0.93905527     9.3407734e+08 -15129.904      1861.6091     -16991.513      0.00035850163
    411000   411            2972.0541      1.0921576      9.3356339e+08 -15133.849      1872.4356     -17006.284      0.000358699  
    412000   412            2922.4429      1.2012302      9.5624897e+08 -15130.119      1841.1798     -16971.299      0.0003501894 
    413000   413            2990.695       0.9487975      9.7441865e+08 -15094.53       1884.1795     -16978.709      0.00034365952
    414000   414            2955.9527      1.0386054      9.6749191e+08 -15137.892      1862.2914     -17000.183      0.00034611995
    415000   415            2865.9655      1.1411716      9.5162018e+08 -15178.703      1805.5983     -16984.301      0.00035189276
    416000   416            2872.7094      1.1093129      9.3940374e+08 -15206.761      1809.847      -17016.608      0.00035646893
    417000   417            2912.513       0.89720611     9.2921351e+08 -15183.086      1834.9238     -17018.01       0.00036037816
    418000   418            2913.1515      0.67482541     9.3013352e+08 -15172.96       1835.3261     -17008.286      0.0003600217 
    419000   419            2865.3125      0.79960189     9.5093212e+08 -15192.073      1805.1868     -16997.26       0.00035214738
    420000   420            2915.4749      0.73362429     9.779186e+08  -15175.94       1836.7898     -17012.73       0.00034242958
    421000   421            2897.752       1.1517025      9.660559e+08  -15169.813      1825.6242     -16995.437      0.00034663445
    422000   422            2976.359       1.0292844      9.2592121e+08 -15152.087      1875.1477     -17027.235      0.00036165955
    423000   423            2888.1954      1.1024536      9.1770568e+08 -15203.76       1819.6034     -17023.363      0.00036489722
    424000   424            2849.0034      0.96432699     9.1973647e+08 -15240.886      1794.9118     -17035.798      0.00036409152
    425000   425            2837.3023      0.91872464     9.2936517e+08 -15241.926      1787.54       -17029.466      0.00036031935
    426000   426            2888.8708      1.1740781      9.3660637e+08 -15213.58       1820.0289     -17033.609      0.0003575336 
    427000   427            2901.3247      1.1758646      9.3556175e+08 -15231.242      1827.875      -17059.117      0.00035793282
    428000   428            2939.01        1.1207424      9.125659e+08  -15176.372      1851.6173     -17027.989      0.0003669524 
    429000   429            2801.0869      0.85457739     9.001396e+08  -15238.908      1764.7238     -17003.632      0.00037201813
    430000   430            2848.0441      0.98011625     9.0695784e+08 -15248.087      1794.3075     -17042.395      0.00036922141
    431000   431            2807.6076      0.91380321     9.3203458e+08 -15265.019      1768.832      -17033.851      0.00035928737
    432000   432            2917.9138      1.0050845      9.4985043e+08 -15224.164      1838.3264     -17062.49       0.0003525484 
    433000   433            2867.0333      0.89649932     9.2703137e+08 -15243.612      1806.271      -17049.883      0.00036122645
    434000   434            2858.6571      0.78594375     8.9687275e+08 -15260.949      1800.9938     -17061.942      0.0003733732 
    435000   435            2871.2151      1.2180965      8.9465447e+08 -15231.369      1808.9056     -17040.274      0.00037429897
    436000   436            2841.2013      0.80546258     9.0496805e+08 -15265.545      1789.9965     -17055.542      0.00037003323
    437000   437            2822.6535      0.92618787     9.0803862e+08 -15270.012      1778.3111     -17048.323      0.00036878195
    438000   438            2775.8332      1.0078305      9.026388e+08  -15298.999      1748.8137     -17047.812      0.0003709881 
    439000   439            2796.1158      0.8319171      8.7751639e+08 -15308.321      1761.5919     -17069.913      0.00038160911
    440000   440            2817.9936      1.4006719      8.5978485e+08 -15283.055      1775.3753     -17058.43       0.00038947912
    441000   441            2821.0348      1.0445623      8.7345613e+08 -15277.002      1777.2912     -17054.293      0.00038338302
    442000   442            2841.0154      0.82295141     8.9948682e+08 -15291.866      1789.8793     -17081.745      0.00037228811
    443000   443            2753.0889      0.89607931     9.0507467e+08 -15332.639      1734.4844     -17067.123      0.00036998964
    444000   444            2776.527       0.97790396     8.9446205e+08 -15327.871      1749.2507     -17077.122      0.00037437949
    445000   445            2714.7176      1.3503583      8.8261576e+08 -15388.293      1710.31       -17098.603      0.00037940434
    446000   446            2772.4968      1.00295        8.7508635e+08 -15348.724      1746.7117     -17095.436      0.00038266881
    447000   447            2716.9311      1.1193475      8.7532385e+08 -15389.525      1711.7045     -17101.23       0.00038256498
    448000   448            2724.2799      1.130131       8.8262081e+08 -15383.891      1716.3344     -17100.226      0.00037940217
    449000   449            2746.6524      0.85664646     8.9687879e+08 -15387.923      1730.4293     -17118.352      0.00037337069
    450000   450            2716.5693      0.90425805     9.0100522e+08 -15371.499      1711.4765     -17082.975      0.00037166072
    451000   451            2739.9881      0.99249769     8.8448205e+08 -15367.385      1726.2307     -17093.616      0.00037860378
    452000   452            2723.5352      0.94782565     8.6046532e+08 -15383.499      1715.8652     -17099.364      0.00038917112
    453000   453            2732.2765      1.1868352      8.573455e+08  -15382.465      1721.3723     -17103.837      0.00039058729
    454000   454            2680.2295      1.1434512      8.7713505e+08 -15401.399      1688.582      -17089.98       0.00038177502
    455000   455            2726.0005      1.0948614      8.927766e+08  -15365.448      1717.4183     -17082.866      0.00037508628
    456000   456            2683.9846      0.79254584     8.9204244e+08 -15418.829      1690.9477     -17109.777      0.00037539498
    457000   457            2693.8366      0.79368164     8.8089671e+08 -15404.286      1697.1546     -17101.441      0.00038014474
    458000   458            2692.729       1.1844814      8.6975203e+08 -15406.004      1696.4568     -17102.461      0.00038501577
    459000   459            2670.079       0.89902683     8.630986e+08  -15454.863      1682.187      -17137.05       0.00038798377
    460000   460            2688.117       1.2606601      8.5531264e+08 -15424.954      1693.5512     -17118.505      0.00039151561
    461000   461            2719.9705      1.1027157      8.4501853e+08 -15413.759      1713.6194     -17127.378      0.0003962851 
    462000   462            2682.1214      0.98299815     8.4026768e+08 -15445.278      1689.7739     -17135.052      0.00039852568
    463000   463            2656.9044      0.85900786     8.5082863e+08 -15456.686      1673.8868     -17130.573      0.00039357897
    464000   464            2676.226       0.86638903     8.6895468e+08 -15439.174      1686.0597     -17125.234      0.00038536906
    465000   465            2649.9166      0.85414507     8.7611573e+08 -15450.844      1669.4844     -17120.328      0.0003822192 
    466000   466            2702.6899      0.88217233     8.5336162e+08 -15412.874      1702.7323     -17115.607      0.00039241072
    467000   467            2699.0724      1.1507378      8.2849392e+08 -15432.159      1700.4533     -17132.612      0.00040418915
    468000   468            2668.4592      1.195234       8.2873461e+08 -15467.134      1681.1665     -17148.3        0.00040407176
    469000   469            2631.5402      1.0511307      8.3975778e+08 -15471.287      1657.907      -17129.194      0.00039876767
    470000   470            2642.3653      1.1185873      8.4835525e+08 -15494.33       1664.727      -17159.057      0.00039472644
    471000   471            2662.0071      1.1994959      8.4925466e+08 -15501.75       1677.1016     -17178.852      0.0003943084 
    472000   472            2633.6064      0.91276122     8.3811323e+08 -15484.244      1659.2088     -17143.453      0.00039955013
    473000   473            2675.5654      0.98826891     8.2509161e+08 -15470.897      1685.6435     -17156.541      0.00040585584
    474000   474            2601.6544      0.99468298     8.2493801e+08 -15502.245      1639.0786     -17141.324      0.00040593141
    475000   475            2608.0309      0.94036017     8.3552174e+08 -15487.929      1643.0959     -17131.025      0.00040078939
    476000   476            2619.8301      1.0153368      8.531586e+08  -15521.32       1650.5295     -17171.85       0.0003925041 
    477000   477            2604.1905      0.81355725     8.5689501e+08 -15524.512      1640.6764     -17165.188      0.00039079262
    478000   478            2582.894       0.68516679     8.3829469e+08 -15550.105      1627.2593     -17177.365      0.00039946364
    479000   479            2600.6858      1.0875744      8.1686662e+08 -15537.037      1638.4683     -17175.505      0.00040994239
    480000   480            2600.345       0.99357385     8.1450573e+08 -15529.897      1638.2536     -17168.15       0.00041113063
    481000   481            2588.8479      0.71568468     8.1923659e+08 -15532.557      1631.0103     -17163.567      0.00040875646
    482000   482            2638.3287      0.82904123     8.2320416e+08 -15533.009      1662.1839     -17195.192      0.00040678639
    483000   483            2642.6782      0.65159598     8.2482587e+08 -15510.381      1664.9241     -17175.305      0.0004059866 
    484000   484            2634.2747      1.2902651      8.2654849e+08 -15543.651      1659.6298     -17203.28       0.00040514048
    485000   485            2560.4488      1.0700694      8.1738249e+08 -15571.739      1613.1185     -17184.857      0.00040968366
    486000   486            2533.1304      1.0496842      7.972818e+08  -15593.257      1595.9075     -17189.165      0.00042001241
    487000   487            2564.5192      0.89255506     7.9210836e+08 -15604.759      1615.6829     -17220.442      0.00042275561
    488000   488            2541.6534      1.0173766      8.0866129e+08 -15594.594      1601.2771     -17195.871      0.00041410199
    489000   489            2515.8339      0.80056889     8.3133853e+08 -15619.873      1585.0104     -17204.883      0.00040280612
    490000   490            2541.3858      1.1393186      8.3170771e+08 -15599.133      1601.1085     -17200.241      0.00040262733
    491000   491            2545.9934      0.94517537     8.1968645e+08 -15611.897      1604.0114     -17215.908      0.00040853213
    492000   492            2531.7312      0.76070628     8.0334555e+08 -15601.007      1595.026      -17196.033      0.00041684211
    493000   493            2550.2845      0.89908863     7.9697751e+08 -15620.212      1606.7148     -17226.927      0.00042017277
    494000   494            2544.399       1.099553       7.9938195e+08 -15618.656      1603.0069     -17221.663      0.00041890895
    495000   495            2555.3928      1.2303485      8.1679217e+08 -15601.148      1609.9331     -17211.081      0.00040997975
    496000   496            2508.1701      0.63434658     8.4608804e+08 -15627.879      1580.1822     -17208.061      0.00039578417
    497000   497            2502.564       0.81712425     8.399075e+08  -15640.564      1576.6502     -17217.215      0.00039869658
    498000   498            2465.57        0.98502132     8.2458374e+08 -15665.499      1553.3435     -17218.842      0.00040610581
    499000   499            2501.9826      1.188377       8.0794498e+08 -15645.24       1576.2839     -17221.524      0.00041446913
    500000   500            2480.9202      1.0707669      7.927436e+08  -15673.004      1563.0143     -17236.018      0.00042241685
    501000   501            2456.9431      0.96999348     7.8666061e+08 -15697.75       1547.9084     -17245.658      0.00042568326
    502000   502            2477.3165      1.0297044      7.9139846e+08 -15672.863      1560.7439     -17233.607      0.00042313483
    503000   503            2551.6848      1.1854746      8.0232479e+08 -15653.553      1607.597      -17261.15       0.00041737243
    504000   504            2499.2331      0.95572491     8.2027893e+08 -15669.393      1574.5517     -17243.945      0.00040823705
    505000   505            2504.0939      0.89561842     8.1889435e+08 -15672.393      1577.6141     -17250.007      0.0004089273 
    506000   506            2445.6423      1.0295814      7.9086699e+08 -15718.871      1540.7888     -17259.659      0.00042341917
    507000   507            2437.1657      1.0455937      7.748996e+08  -15739.82       1535.4484     -17275.268      0.00043214405
    508000   508            2440.2456      1.2271402      7.7025148e+08 -15736.543      1537.3887     -17273.932      0.00043475184
    509000   509            2430.0259      1.3037712      7.7439108e+08 -15730.727      1530.9502     -17261.677      0.00043242782
    510000   510            2458.0586      1.0986616      7.8893967e+08 -15733.354      1548.6112     -17281.966      0.00042445356
    511000   511            2446.239       1.1036898      8.0724642e+08 -15726.936      1541.1647     -17268.1        0.00041482779
    512000   512            2469.214       1.2927119      8.0706314e+08 -15730.095      1555.6393     -17285.735      0.000414922  
    513000   513            2448.179       0.87866405     7.6715634e+08 -15748.567      1542.3869     -17290.954      0.00043650588
    514000   514            2408.7452      1.0378623      7.5586011e+08 -15760.385      1517.5431     -17277.929      0.0004430294 
    515000   515            2373.3268      0.94334119     7.6206491e+08 -15777.882      1495.229      -17273.11       0.00043942222
    516000   516            2388.7253      1.4970287      7.7889433e+08 -15769.074      1504.9302     -17274.005      0.00042992771
    517000   517            2372.998       0.65831009     7.8662782e+08 -15816.881      1495.0218     -17311.903      0.000425701  
    518000   518            2403.6175      0.95921686     7.7561442e+08 -15786.032      1514.3126     -17300.344      0.00043174578
    519000   519            2384.5173      0.7838676      7.5928841e+08 -15814.371      1502.2792     -17316.65       0.00044102906
    520000   520            2406.61        1.0482244      7.5059029e+08 -15812.385      1516.1979     -17328.583      0.00044613987
    521000   521            2366.9204      0.59959482     7.5091194e+08 -15820.37       1491.1929     -17311.563      0.00044594876
    522000   522            2385.0903      0.9072894      7.5624716e+08 -15812.911      1502.6401     -17315.551      0.00044280266
    523000   523            2397.5582      0.84719058     7.6023006e+08 -15827.634      1510.4951     -17338.129      0.00044048278
    524000   524            2377.3971      0.96183887     7.581291e+08  -15840.301      1497.7933     -17338.094      0.00044170347
    525000   525            2340.0124      0.88553608     7.386969e+08  -15866.924      1474.2405     -17341.164      0.00045332294
    526000   526            2342.6571      0.82733095     7.1921427e+08 -15852.607      1475.9067     -17328.513      0.0004656029 
    527000   527            2386.7241      0.99642025     7.2526016e+08 -15849.709      1503.6695     -17353.379      0.00046172155
    528000   528            2321.6036      0.82573195     7.4066272e+08 -15876.604      1462.6427     -17339.246      0.00045211976
    529000   529            2345.2266      1.2450427      7.4566164e+08 -15880.742      1477.5255     -17358.268      0.00044908874
    530000   530            2352.8589      0.68738722     7.4527653e+08 -15860.403      1482.3339     -17342.737      0.0004493208 
    531000   531            2339.7565      0.98481765     7.388335e+08  -15876.928      1474.0792     -17351.007      0.00045323913
    532000   532            2350.9695      1.208889       7.3054692e+08 -15879.91       1481.1436     -17361.053      0.00045838021
    533000   533            2322.5324      1.0470567      7.2613934e+08 -15908.18       1463.2278     -17371.407      0.00046116253
    534000   534            2283.7106      0.78149501     7.2232699e+08 -15936.635      1438.7696     -17375.404      0.00046359648
    535000   535            2271.0094      0.85300109     7.1430944e+08 -15947.095      1430.7676     -17377.862      0.00046879998
    536000   536            2379.3765      0.78220434     7.040238e+08  -15900.597      1499.0404     -17399.638      0.00047564905
    537000   537            2332.7939      0.99860399     6.9847513e+08 -15951.185      1469.6927     -17420.877      0.0004794276 
    538000   538            2316.4479      1.0485052      6.9539221e+08 -15939.336      1459.3945     -17398.73       0.00048155307
    539000   539            2271.562       0.90492979     7.0178273e+08 -15981.009      1431.1157     -17412.124      0.00047716798
    540000   540            2293.7277      1.0303123      7.1830455e+08 -15988.773      1445.0805     -17433.853      0.00046619258
    541000   541            2278.6275      1.3298304      7.2566712e+08 -15973.643      1435.5671     -17409.21       0.00046146262
    542000   542            2302.9284      1.1536586      7.1218095e+08 -15979.934      1450.877      -17430.811      0.00047020108
    543000   543            2241.4366      1.0855201      6.930771e+08  -16019.858      1412.1363     -17431.995      0.00048316161
    544000   544            2281.9092      1.0284995      6.8769864e+08 -15983.331      1437.6346     -17420.965      0.0004869404 
    545000   545            2266.5265      0.8778829      6.8966497e+08 -15997.315      1427.9433     -17425.258      0.00048555206
    546000   546            2244.6502      1.1360843      6.9193613e+08 -16012.664      1414.1609     -17426.825      0.00048395832
    547000   547            2285.1881      1.2429669      6.895476e+08  -16017.853      1439.7004     -17457.554      0.00048563471
    548000   548            2239.7849      0.73653099     6.8034818e+08 -16011.346      1411.0957     -17422.442      0.00049220129
    549000   549            2261.4646      0.7308537      6.6874656e+08 -16051.661      1424.7542     -17476.415      0.00050074015
    550000   550            2242.9716      1.1533674      6.6120915e+08 -16051.341      1413.1034     -17464.445      0.0005064483 
    551000   551            2313.751       1.1458621      6.6682793e+08 -16017.352      1457.6954     -17475.048      0.0005021809 
    552000   552            2223.5987      0.79223479     6.915023e+08  -16062.866      1400.8982     -17463.764      0.00048426195
    553000   553            2278.3804      1.1758597      6.9851129e+08 -16040.854      1435.4114     -17476.266      0.00047940277
    554000   554            2234.886       0.64899116     6.8209224e+08 -16072.184      1408.0093     -17480.193      0.00049094277
    555000   555            2193.5407      1.0055129      6.6268208e+08 -16107.109      1381.9613     -17489.07       0.00050532263
    556000   556            2193.8634      1.3191275      6.5540457e+08 -16095.513      1382.1645     -17477.678      0.00051093365
    557000   557            2223.0902      1.0360328      6.5665591e+08 -16099.614      1400.5778     -17500.192      0.00050996   
    558000   558            2213.2427      0.86334497     6.5984955e+08 -16117.184      1394.3738     -17511.558      0.00050749182
    559000   559            2182.1406      0.76570445     6.5799701e+08 -16125.671      1374.779      -17500.45       0.00050892063
    560000   560            2204.181       0.97480623     6.4407775e+08 -16114.986      1388.6648     -17503.651      0.00051991898
    561000   561            2215.4703      0.99206854     6.2907585e+08 -16117.86       1395.7772     -17513.637      0.00053231776
    562000   562            2202.5077      0.65827971     6.2643634e+08 -16138.467      1387.6106     -17526.077      0.0005345607 
    563000   563            2185.9584      0.83639511     6.364396e+08  -16147.494      1377.1843     -17524.678      0.00052615873
    564000   564            2161.2109      0.89654813     6.4853347e+08 -16149.967      1361.593      -17511.56       0.00051634691
    565000   565            2179.4476      1.1749231      6.5330092e+08 -16151.931      1373.0824     -17525.013      0.00051257888
    566000   566            2175.8351      0.88952185     6.4487246e+08 -16146.694      1370.8064     -17517.5        0.00051927827
    567000   567            2132.7681      1.0317763      6.1984259e+08 -16147.541      1343.6736     -17491.215      0.00054024725
    568000   568            2207.9029      1.0997945      6.1345859e+08 -16106.954      1391.0096     -17497.964      0.00054586936
    569000   569            2151.5921      0.80472381     6.2408472e+08 -16148.832      1355.5331     -17504.365      0.00053657499
    570000   570            2140.2895      1.2614454      6.3618389e+08 -16172.557      1348.4122     -17520.969      0.00052637021
    571000   571            2109.9389      0.93220327     6.4527324e+08 -16186.271      1329.2909     -17515.562      0.00051895574
    572000   572            2103.9176      1.0169096      6.4755514e+08 -16209.155      1325.4974     -17534.653      0.000517127  
    573000   573            2106.6906      0.7048849      6.3912534e+08 -16190.583      1327.2445     -17517.828      0.0005239477 
    574000   574            2150.7756      1.2192358      6.262438e+08  -16185.025      1355.0186     -17540.043      0.00053472505
    575000   575            2117.503       1.2960043      6.1790184e+08 -16205.621      1334.0564     -17539.678      0.00054194409
[...]
    882000   882            602.68823      7.072563       28894005      -21390.701      379.70199     -21770.403      0.011589541  
    883000   883            580.15211      1.2657601      28565890      -21438.142      365.50392     -21803.646      0.011722661  
    884000   884            572.22584      0.4424943      28289237      -21467.243      360.51026     -21827.754      0.011837302  
    885000   885            576.90859      1.0507546      27910348      -21422.691      363.46046     -21786.152      0.011997996  
    886000   886            579.7202       3.6922195      27609185      -21490.923      365.23181     -21856.155      0.012128871  
    887000   887            575.32506     -0.16774731     27260266      -21528.483      362.46281     -21890.945      0.012284115  
    888000   888            560.85899      4.4903788      26902943      -21562.609      353.34899     -21915.958      0.012447272  
    889000   889            555.73841      2.4364962      26541591      -21560.758      350.12295     -21910.88       0.012616736  
    890000   890            532.52355     -2.4325056      26158013      -21616.64       335.49726     -21952.138      0.012801746  
    891000   891            543.35379     -2.2639028      25826123      -21617.345      342.32047     -21959.665      0.012966261  
    892000   892            548.60973      0.70952274     25502783      -21577.108      345.63178     -21922.74       0.013130655  
    893000   893            533.66543      0.65543694     25151025      -21642.744      336.21666     -21978.961      0.013314298  
    894000   894            532.06978      5.8345542      24907980      -21652.396      335.21138     -21987.607      0.013444216  
    895000   895            524.29215     -1.1418585      24660978      -21611.706      330.31137     -21942.018      0.013578871  
    896000   896            523.61361     -3.8715354      24404946      -21616.095      329.88387     -21945.979      0.013721327  
    897000   897            514.95235      4.7386527      24205684      -21650.105      324.42716     -21974.532      0.013834282  
    898000   898            482.54116     -5.0202953      24007048      -21700.599      304.00766     -22004.607      0.013948748  
    899000   899            510.87969     -0.49550057     23789482      -21693.663      321.86133     -22015.525      0.014076315  
    900000   900            497.87076     -0.63532752     23606372      -21744.466      313.66553     -22058.132      0.014185503  
    901000   901            496.82353     -4.1745366      23351812      -21702.897      313.00575     -22015.903      0.01434014   
    902000   902            483.93635     -2.2882491      23112336      -21751.708      304.88665     -22056.594      0.014488724  
    903000   903            495.52168      0.71914438     22914279      -21701.91       312.18557     -22014.095      0.014613955  
    904000   904            489.45504      6.6578227      22719823      -21713.695      308.3635      -22022.059      0.014739034  
    905000   905            469.50362      1.0161366      22484476      -21750.994      295.79383     -22046.788      0.014893309  
    906000   906            477.19906      7.1960387      22277600      -21793.901      300.64206     -22094.543      0.015031612  
    907000   907            474.98027      3.8606095      22059532      -21814.154      299.24419     -22113.399      0.015180207  
    908000   908            469.55409      3.9835485      21803903      -21760.315      295.82562     -22056.141      0.015358179  
    909000   909            454.16057     -6.1631506      21572113      -21874.072      286.1275      -22160.2        0.015523201  
    910000   910            454.94507      2.1315052      21324496      -21816.749      286.62174     -22103.371      0.015703455  
    911000   911            454.07157     -1.266435       21100795      -21809.78       286.07142     -22095.852      0.015869935  
    912000   912            453.37213      0.42299381     20883031      -21915.726      285.63077     -22201.356      0.016035424  
    913000   913            447.50712     -0.89272761     20701210      -21911.341      281.93572     -22193.277      0.016176265  
    914000   914            433.45479     -3.5413427      20523036      -21913.553      273.08257     -22186.635      0.016316701  
    915000   915            433.20665      1.0664428      20273695      -21874.94       272.92623     -22147.866      0.016517376  
    916000   916            424.05148     -4.5895244      20044950      -21910.38       267.15834     -22177.538      0.016705866  
    917000   917            413.16179      0.28589508     19787901      -21960.43       260.29769     -22220.728      0.016922879  
    918000   918            407.93514     -1.1528862      19610370      -21991.534      257.00483     -22248.539      0.01707608   
    919000   919            402.38919      1.3846534      19393647      -21939.863      253.5108      -22193.374      0.017266905  
    920000   920            395.84616      1.7206222      19143788      -21908.369      249.3886      -22157.758      0.017492267  
    921000   921            404.0477      -2.9843971      18952213      -21959.001      254.55569     -22213.557      0.017669084  
    922000   922            400.75845      8.2924095      18775716      -21944.027      252.48341     -22196.51       0.017835179  
    923000   923            388.95961      3.3102984      18561185      -22049.12       245.04998     -22294.17       0.018041318  
    924000   924            379.37263      0.48923486     18375359      -22017.258      239.01005     -22256.268      0.018223767  
    925000   925            376.24799      6.9707598      18191774      -22001.436      237.04148     -22238.478      0.018407674  
    926000   926            368.27012     -0.49312223     18000253      -22011.031      232.01531     -22243.046      0.01860353   
    927000   927            372.43768     -0.58264447     17837171      -22025.728      234.64093     -22260.369      0.018773619  
    928000   928            361.24596     -3.7348803      17662578      -22088.919      227.58999     -22316.509      0.018959194  
    929000   929            357.84851      5.4785446      17472644      -21993.694      225.44955     -22219.144      0.019165287  
    930000   930            361.67064      3.6960935      17299905      -22060.395      227.85755     -22288.253      0.019356653  
    931000   931            333.34187     -1.0734032      17124712      -22054.591      210.01003     -22264.601      0.019554679  
    932000   932            338.28616     -4.6838226      16997651      -22086.303      213.125       -22299.428      0.019700855  
    933000   933            346.1107       3.1509313      16836767      -22095.244      218.05457     -22313.299      0.019889106  
    934000   934            324.83087     -0.11506185     16619890      -22145.27       204.64798     -22349.918      0.020148645  
    935000   935            330.88905      0.51461861     16430891      -22087.498      208.46472     -22295.962      0.020380407  
    936000   936            312.75504      0.83994739     16250977      -22189.601      197.04004     -22386.641      0.020606037  
    937000   937            317.59206     -1.6088186      16088073      -22114.703      200.08743     -22314.79       0.02081469   
    938000   938            315.69415      4.1290687      15894637      -22082.604      198.89171     -22281.496      0.021068002  
    939000   939            305.60119     -0.30579617     15691787      -22196.223      192.53301     -22388.756      0.021340351  
    940000   940            302.61935     -6.5220163      15506040      -22233.368      190.65441     -22424.022      0.021595988  
Loop time of 80.3973 on 6 procs for 940000 steps with 4875 atoms

Performance: 1010.184 ns/day, 0.024 hours/ns, 11691.939 timesteps/s, 56.998 Matom-step/s
98.6% CPU use with 6 MPI tasks x 1 OpenMP threads

MPI task timing breakdown:
Section |  min time  |  avg time  |  max time  |%varavg| %total
---------------------------------------------------------------
Pair    | 12.896     | 14.081     | 15.222     |  22.2 | 17.51
Neigh   | 30.85      | 31.72      | 32.444     |   9.5 | 39.45
Comm    | 9.8519     | 10.748     | 11.608     |  19.7 | 13.37
Output  | 0.21035    | 0.22434    | 0.25018    |   2.8 |  0.28
Modify  | 19.424     | 20.031     | 20.856     |  11.7 | 24.91
Other   |            | 3.594      |            |       |  4.47

Nlocal:          812.5 ave         864 max         741 min
Histogram: 1 0 0 1 0 0 1 2 0 1
Nghost:        638.167 ave         715 max         595 min
Histogram: 1 2 0 1 0 1 0 0 0 1
Neighs:        3565.17 ave        3981 max        2972 min
Histogram: 1 0 1 0 0 1 0 1 0 2

Total # of neighbors = 21391
Ave neighs/atom = 4.3878974
Neighbor list builds = 80976
Dangerous builds = 0

# STAGE 2: Equilibrate at 300K for 50 ps
unfix 1
fix 1 all npt temp 300 300 $(100.0*dt) iso 1.0 1.0 $(1000.0*dt)
fix 1 all npt temp 300 300 0.10000000000000000555 iso 1.0 1.0 $(1000.0*dt)
fix 1 all npt temp 300 300 0.10000000000000000555 iso 1.0 1.0 1

print "Equilibrating Li2Ta2OF23 quenched structure at 300K"
Equilibrating Li2Ta2OF23 quenched structure at 300K
run 50000
Generated 0 of 6 mixed pair_coeff terms from geometric mixing rule
Per MPI rank memory allocation (min/avg/max) = 10.35 | 10.36 | 10.36 Mbytes
   Step          Time           Temp          Press          Volume         TotEng         KinEng         PotEng        Density    
    940000   940            302.61935     -6.5220163      15506040      -22233.368      190.65441     -22424.022      0.021595988  
    941000   941            303.95092     -1.1578523      15290855      -22140.68       191.49332     -22332.173      0.021899904  
    942000   942            304.99372     -3.1206484      14774453      -22197.815      192.1503      -22389.965      0.022665357  
    943000   943            296.99115      0.31336845     14266280      -22263.967      187.10856     -22451.076      0.023472709  
    944000   944            297.78195     -3.5130451      13899761      -22227.83       187.60678     -22415.436      0.024091655  
    945000   945            299.02659     -6.1770704      13527969      -22217.712      188.39092     -22406.103      0.024753771  
    946000   946            299.97679     -3.2196505      13168091      -22183.883      188.98956     -22372.873      0.025430282  
    947000   947            297.93176      1.2421072      12704032      -22248.02       187.70117     -22435.721      0.026359209  
    948000   948            296.51339     -6.0678188      12538711      -22249.644      186.80757     -22436.451      0.026706752  
    949000   949            300.99472     -3.2565322      12161950      -22259.452      189.63087     -22449.083      0.027534091  
    950000   950            310.22561     -0.88049595     11904553      -22242.271      195.44646     -22437.717      0.028129426  
    951000   951            304.73294      8.5763109      11661024      -22231.635      191.986       -22423.621      0.028716882  
    952000   952            308.97426      2.6045723      11533579      -22222.495      194.65809     -22417.153      0.0290342    
    953000   953            292.41914     -12.640782      11200913      -22234.739      184.22814     -22418.967      0.029896515  
    954000   954            292.22329      6.1665235      11240188      -22284.463      184.10475     -22468.568      0.029792051  
    955000   955            299.99234      11.553126      11309284      -22209.833      188.99936     -22398.833      0.029610031  
    956000   956            296.00387     -3.5873184      11547676      -22311.95       186.48657     -22498.436      0.028998758  
    957000   957            304.01843     -2.8422691      11709652      -22255.769      191.53585     -22447.305      0.028597627  
    958000   958            303.89281      3.9713372      11884348      -22226.708      191.45671     -22418.165      0.028177251  
    959000   959            297.732       -2.4037075      12182649      -22293.191      187.57531     -22480.766      0.027487311  
    960000   960            303.04142     -1.1330361      12252537      -22372.049      190.92032     -22562.97       0.027330523  
    961000   961            293.14074      1.4911723      12448093      -22233.481      184.68276     -22418.164      0.026901169  
    962000   962            304.78127     -2.0559003      12780256      -22320.789      192.01645     -22512.805      0.026201999  
    963000   963            297.31565      0.77249966     12818749      -22332.213      187.31301     -22519.526      0.026123318  
    964000   964            306.96876      7.7620281      12785046      -22257.914      193.3946      -22451.309      0.026192183  
    965000   965            307.31042     -4.845884       12782574      -22334.396      193.60985     -22528.006      0.026197248  
    966000   966            294.52853     -3.1021305      12554914      -22306.57       185.55708     -22492.127      0.026672286  
    967000   967            298.67193      2.3319482      12319061      -22323.145      188.16748     -22511.312      0.027182936  
    968000   968            295.20599      7.2480145      12304458      -22283.519      185.98389     -22469.503      0.027215197  
    969000   969            303.13163     -3.5863673      12256413      -22359.163      190.97715     -22550.14       0.02732188   
    970000   970            306.59096      3.9532142      12209066      -22259.972      193.15658     -22453.128      0.027427836  
    971000   971            301.53211     -1.0495044      12262654      -22337.507      189.96943     -22527.477      0.027307975  
    972000   972            299.63451      1.6014652      12549141      -22238.054      188.77392     -22426.828      0.026684557  
    973000   973            299.61337      2.6511324      12686531      -22257.769      188.7606      -22446.529      0.026395573  
    974000   974            287.88879      0.29775846     12908557      -22312.404      181.37396     -22493.778      0.025941572  
    975000   975            302.06901      2.3091549      12976115      -22338.423      190.30769     -22528.731      0.02580651   
    976000   976            297.40319     -6.4227103      12992027      -22397.859      187.36816     -22585.227      0.025774904  
    977000   977            302.88151      2.9114658      13121735      -22292.159      190.81958     -22482.979      0.02552012   
    978000   978            298.51221     -0.32108097     13180608      -22367.838      188.06686     -22555.904      0.025406131  
    979000   979            301.6123       1.6231985      13328873      -22387.228      190.01996     -22577.248      0.025123523  
    980000   980            301.04855      1.379692       13281430      -22371.079      189.66478     -22560.743      0.025213268  
    981000   981            302.51953      0.00095803457  13291767      -22292.582      190.59153     -22483.174      0.025193659  
    982000   982            299.87785      3.055935       13375308      -22418.962      188.92723     -22607.889      0.025036303  
    983000   983            311.76649     -1.4890531      13403645      -22356.922      196.41724     -22553.34       0.024983372  
    984000   984            296.81312      3.6451621      13505385      -22296.017      186.99641     -22483.013      0.024795166  
    985000   985            302.73736      0.38026122     13767122      -22371.768      190.72876     -22562.496      0.024323766  
    986000   986            301.58395     -1.3846131      13872288      -22319.011      190.00209     -22509.013      0.024139367  
    987000   987            296.73517     -3.2151156      13862039      -22391.235      186.9473      -22578.183      0.024157215  
    988000   988            296.81682     -3.9845129      13957432      -22395.271      186.99874     -22582.27       0.02399211   
    989000   989            299.85741      0.85255538     13825139      -22299.642      188.91435     -22488.557      0.024221692  
    990000   990            296.97689      0.46150681     13770351      -22413.565      187.09958     -22600.665      0.024318062  
Loop time of 5.38137 on 6 procs for 50000 steps with 4875 atoms

Performance: 802.770 ns/day, 0.030 hours/ns, 9291.317 timesteps/s, 45.295 Matom-step/s
98.8% CPU use with 6 MPI tasks x 1 OpenMP threads

MPI task timing breakdown:
Section |  min time  |  avg time  |  max time  |%varavg| %total
---------------------------------------------------------------
Pair    | 2.1188     | 2.4095     | 2.8558     |  15.8 | 44.78
Neigh   | 0.56881    | 0.6183     | 0.65891    |   4.4 | 11.49
Comm    | 0.63363    | 1.0249     | 1.4252     |  32.0 | 19.05
Output  | 0.01064    | 0.011078   | 0.011734   |   0.3 |  0.21
Modify  | 1.0291     | 1.155      | 1.3466     |  11.9 | 21.46
Other   |            | 0.1626     |            |       |  3.02

Nlocal:          812.5 ave         872 max         773 min
Histogram: 1 1 1 0 1 1 0 0 0 1
Nghost:        624.667 ave         684 max         560 min
Histogram: 1 1 0 0 0 2 0 0 1 1
Neighs:        4401.67 ave        5872 max        3777 min
Histogram: 2 1 2 0 0 0 0 0 0 1

Total # of neighbors = 26410
Ave neighs/atom = 5.4174359
Neighbor list builds = 2199
Dangerous builds = 0

# STAGE 3: Final minimization
minimize 1.0e-4 1.0e-6 1000 10000
Generated 0 of 6 mixed pair_coeff terms from geometric mixing rule
Per MPI rank memory allocation (min/avg/max) = 11.48 | 11.48 | 11.49 Mbytes
   Step          Time           Temp          Press          Volume         TotEng         KinEng         PotEng        Density    
    990000   990            296.97689      0.46150681     13770351      -22413.565      187.09958     -22600.665      0.024318062  
    990006   990.006        296.97689     -1.6924811      13770351      -22544.73       187.09958     -22731.829      0.024318062  
Loop time of 0.00314706 on 6 procs for 6 steps with 4875 atoms

99.4% CPU use with 6 MPI tasks x 1 OpenMP threads

Minimization stats:
  Stopping criterion = energy tolerance
  Energy initial, next-to-last, final = 
      -22600.664839425  -22731.6136140972  -22731.8294098267
  Force two-norm initial, final = 55.963977 14.177468
  Force max component initial, final = 5.1581631 1.4220111
  Final line search alpha, max atom move = 0.0010536696 0.0014983299
  Iterations, force evaluations = 6 16

MPI task timing breakdown:
Section |  min time  |  avg time  |  max time  |%varavg| %total
---------------------------------------------------------------
Pair    | 0.0011218  | 0.0013315  | 0.0017887  |   0.6 | 42.31
Neigh   | 0          | 0          | 0          |   0.0 |  0.00
Comm    | 0.00015796 | 0.00046478 | 0.00080937 |   0.0 | 14.77
Output  | 0          | 0          | 0          |   0.0 |  0.00
Modify  | 0          | 0          | 0          |   0.0 |  0.00
Other   |            | 0.001351   |            |       | 42.92

Nlocal:          812.5 ave         872 max         773 min
Histogram: 1 1 1 0 1 1 0 0 0 1
Nghost:            624 ave         683 max         560 min
Histogram: 1 1 0 0 0 2 0 0 1 1
Neighs:        4401.17 ave        5875 max        3777 min
Histogram: 2 1 2 0 0 0 0 0 0 1

Total # of neighbors = 26407
Ave neighs/atom = 5.4168205
Neighbor list builds = 0
Dangerous builds = 0

# Save quenched structure with descriptive name
write_data Li2Ta2OF23_quenched_5Kps_crystalline.data
System init for write_data ...
Generated 0 of 6 mixed pair_coeff terms from geometric mixing rule
write_dump all xyz Li2Ta2OF23_quenched_5Kps_crystalline.xyz modify element F O Ta Li
undump 1

print "QUENCH COMPLETE for {formula} at {cooling_rate} K/ps - structure type: {structure_type}"
QUENCH COMPLETE for {formula} at {cooling_rate} K/ps - structure type: {structure_type}
Total wall time: 0:01:25
